unknown system                          
   1.00000000000000     
     0.000000    3.029200    3.029200
     3.029200    0.000000    3.029200
     3.029200    3.029200    0.000000
   In   As
     1     1
Direct
  0.000000  0.000000  0.000000
  0.250000  0.250000  0.250000
 
   48   48   48
 -4.6640     -4.3707     -3.5189     -2.1892     -.50320      1.3914      3.3377      5.1858      6.8069      8.1057    
  9.0278      9.5635      9.7441      9.6335      9.3165      8.8863      8.4334      8.0363      7.7265      7.4871    
  7.3021      7.1619      7.0622      7.0019      6.9817      7.0019      7.0621      7.1619      7.3021      7.4871    
  7.7265      8.0363      8.4334      8.8863      9.3165      9.6335      9.7441      9.5635      9.0278      8.1057    
  6.8069      5.1858      3.3377      1.3914     -.50320     -2.1892     -3.5189     -4.3707     -4.3707     -3.8324    
 -2.8006     -1.3594     0.37633      2.2722      4.1867      5.9834      7.5447      8.7829      9.6502      10.142    
  10.295      10.179      9.8832      9.5047      9.1352      8.8410      8.6201      8.4531      8.3263      8.2326    
  8.1697      8.1379      8.1379      8.1697      8.2326      8.3263      8.4531      8.6201      8.8410      9.1352    
  9.5047      9.8832      10.179      10.295      10.142      9.6502      8.7829      7.5447      5.9834      4.1867    
  2.2722     0.37632     -1.3594     -2.8006     -3.8324     -4.3707     -3.5189     -2.8006     -1.6583     -.17079    
  1.5593      3.4117      5.2579      6.9720      8.4445      9.5955      10.385      10.815      10.933      10.815    
  10.556      10.255      9.9987      9.8163      9.6872      9.5936      9.5245      9.4752      9.4450      9.4347    
  9.4450      9.4752      9.5245      9.5936      9.6872      9.8163      9.9987      10.255      10.556      10.815    
  10.933      10.815      10.385      9.5955      8.4445      6.9720      5.2579      3.4117      1.5593     -.17079    
 -1.6583     -2.8006     -3.5189     -3.7640     -2.1892     -1.3594     -.17079      1.3086      2.9887      4.7612    
  6.5068      8.1079      9.4629      10.501      11.193      11.555      11.642      11.540      11.347      11.160    
  11.039      10.971      10.933      10.912      10.897      10.887      10.881      10.881      10.887      10.897    
  10.912      10.934      10.971      11.039      11.160      11.347      11.540      11.642      11.555      11.193    
  10.501      9.4629      8.1079      6.5068      4.7612      2.9887      1.3086     -.17079     -1.3594     -2.1892    
 -2.6152     -2.6152     -.50320     0.37633      1.5593      2.9887      4.5847      6.2468      7.8629      9.3231    
  10.536      11.444      12.032      12.332      12.411      12.361      12.278      12.242      12.259      12.304    
  12.355      12.401      12.434      12.453      12.460      12.453      12.434      12.401      12.355      12.304    
  12.259      12.242      12.278      12.361      12.411      12.332      12.032      11.444      10.536      9.3231    
  7.8629      6.2468      4.5847      2.9887      1.5593     0.37633     -.50319     -1.0434     -1.2255     -1.0434    
  1.3914      2.2722      3.4117      4.7612      6.2468      7.7735      9.2359      10.534      11.591      12.366    
  12.864      13.131      13.244      13.296      13.371      13.499      13.653      13.805      13.939      14.044    
  14.114      14.149      14.149      14.114      14.044      13.939      13.805      13.653      13.499      13.371    
  13.296      13.244      13.131      12.864      12.366      11.591      10.534      9.2360      7.7735      6.2468    
  4.7612      3.4117      2.2722      1.3914     0.79565     0.49619     0.49619     0.79565      3.3377      4.1867    
  5.2579      6.5068      7.8629      9.2359      10.529      11.657      12.562      13.224      13.668      13.952    
  14.157      14.369      14.631      14.918      15.201      15.453      15.660      15.811      15.902      15.933    
  15.902      15.811      15.660      15.453      15.201      14.918      14.631      14.369      14.157      13.952    
  13.668      13.224      12.562      11.657      10.529      9.2359      7.8629      6.5068      5.2579      4.1867    
  3.3377      2.7310      2.3697      2.2500      2.3697      2.7310      5.1858      5.9834      6.9720      8.1079    
  9.3231      10.534      11.657      12.626      13.405      13.998      14.445      14.813      15.178      15.592    
  16.036      16.474      16.875      17.216      17.481      17.661      17.752      17.752      17.661      17.481    
  17.216      16.875      16.474      16.036      15.592      15.178      14.813      14.445      13.998      13.405    
  12.626      11.657      10.534      9.3231      8.1079      6.9720      5.9834      5.1858      4.5967      4.2142    
  4.0273      4.0273      4.2142      4.5967      6.8069      7.5447      8.4445      9.4629      10.536      11.591    
  12.562      13.405      14.110      14.699      15.223      15.749      16.327      16.943      17.556      18.131    
  18.636      19.049      19.352      19.538      19.600      19.538      19.352      19.049      18.636      18.131    
  17.556      16.943      16.327      15.749      15.223      14.699      14.110      13.405      12.562      11.591    
  10.536      9.4629      8.4445      7.5447      6.8069      6.2500      5.8707      5.6538      5.5837      5.6538    
  5.8707      6.2500      8.1057      8.7829      9.5955      10.501      11.444      12.366      13.224      13.998    
  14.699      15.363      16.044      16.788      17.582      18.384      19.150      19.844      20.434      20.895    
  21.209      21.366      21.366      21.209      20.895      20.434      19.844      19.150      18.384      17.582    
  16.788      16.044      15.363      14.699      13.998      13.224      12.366      11.444      10.501      9.5955    
  8.7829      8.1057      7.5846      7.2190      6.9930      6.8867      6.8868      6.9930      7.2190      7.5846    
  9.0278      9.6502      10.385      11.193      12.032      12.864      13.668      14.445      15.223      16.044    
  16.946      17.913      18.903      19.869      20.768      21.557      22.198      22.658      22.932      23.022    
  22.932      22.658      22.198      21.557      20.768      19.869      18.903      17.913      16.946      16.044    
  15.223      14.445      13.668      12.864      12.032      11.193      10.385      9.6502      9.0278      8.5393    
  8.1877      7.9601      7.8357      7.7967      7.8358      7.9601      8.1877      8.5393      9.5635      10.142    
  10.815      11.555      12.332      13.131      13.952      14.813      15.749      16.788      17.913      19.080    
  20.241      21.347      22.348      23.178      23.798      24.201      24.398      24.398      24.201      23.798    
  23.178      22.348      21.347      20.241      19.080      17.913      16.788      15.749      14.813      13.952    
  13.131      12.332      11.555      10.815      10.142      9.5635      9.0996      8.7563      8.5253      8.3882    
  8.3259      8.3259      8.3883      8.5253      8.7563      9.0996      9.7441      10.295      10.933      11.642    
  12.411      13.244      14.157      15.178      16.327      17.582      18.903      20.241      21.545      22.755    
  23.784      24.576      25.123      25.438      25.541      25.438      25.123      24.576      23.784      22.755    
  21.545      20.241      18.903      17.582      16.327      15.178      14.157      13.244      12.411      11.642    
  10.933      10.295      9.7441      9.2937      8.9504      8.7094      8.5570      8.4754      8.4501      8.4754    
  8.5570      8.7094      8.9504      9.2937      9.6335      10.179      10.815      11.540      12.361      13.296    
  14.369      15.592      16.943      18.384      19.869      21.347      22.755      23.988      24.970      25.678    
  26.127      26.342      26.342      26.127      25.678      24.970      23.988      22.755      21.347      19.869    
  18.384      16.943      15.592      14.369      13.296      12.361      11.540      10.815      10.179      9.6335    
  9.1829      8.8300      8.5715      8.3977      8.2940      8.2464      8.2464      8.2940      8.3977      8.5715    
  8.8300      9.1829      9.3165      9.8832      10.556      11.347      12.278      13.371      14.631      16.036    
  17.556      19.150      20.768      22.348      23.784      24.970      25.863      26.468      26.812      26.923    
  26.812      26.468      25.863      24.970      23.784      22.348      20.768      19.150      17.556      16.036    
  14.631      13.371      12.278      11.347      10.556      9.8832      9.3165      8.8489      8.4761      8.1930    
  7.9917      7.8608      7.7885      7.7656      7.7886      7.8608      7.9917      8.1930      8.4761      8.8489    
  8.8863      9.5047      10.255      11.160      12.242      13.499      14.918      16.474      18.131      19.844    
  21.557      23.178      24.576      25.678      26.468      26.966      27.204      27.204      26.966      26.468    
  25.678      24.576      23.178      21.557      19.844      18.131      16.474      14.918      13.499      12.242    
  11.160      10.255      9.5047      8.8863      8.3814      7.9767      7.6622      7.4286      7.2662      7.1652    
  7.1172      7.1172      7.1652      7.2662      7.4286      7.6622      7.9767      8.3814      8.4334      9.1352    
  9.9987      11.039      12.259      13.653      15.201      16.875      18.636      20.434      22.198      23.798    
  25.123      26.127      26.812      27.204      27.332      27.204      26.812      26.127      25.123      23.798    
  22.198      20.434      18.636      16.875      15.201      13.653      12.259      11.039      9.9987      9.1352    
  8.4334      7.8680      7.4169      7.0627      6.7925      6.5955      6.4628      6.3866      6.3618      6.3866    
  6.4628      6.5956      6.7925      7.0627      7.4169      7.8680      8.0363      8.8410      9.8163      10.971    
  12.304      13.805      15.453      17.216      19.049      20.895      22.658      24.201      25.438      26.342    
  26.923      27.204      27.204      26.923      26.342      25.438      24.201      22.658      20.895      19.049    
  17.216      15.453      13.805      12.304      10.971      9.8163      8.8410      8.0363      7.3869      6.8717    
  6.4672      6.1547      5.9203      5.7536      5.6470      5.5951      5.5951      5.6470      5.7536      5.9202    
  6.1547      6.4671      6.8717      7.3869      7.7265      8.6201      9.6872      10.933      12.355      13.939    
  15.660      17.481      19.352      21.209      22.932      24.398      25.541      26.342      26.812      26.966    
  26.812      26.342      25.541      24.398      22.932      21.208      19.352      17.481      15.660      13.939    
  12.355      10.934      9.6872      8.6201      7.7265      6.9933      6.4028      5.9353      5.5720      5.2954    
  5.0924      4.9535      4.8727      4.8462      4.8727      4.9535      5.0924      5.2954      5.5719      5.9353    
  6.4028      6.9934      7.4871      8.4531      9.5936      10.912      12.401      14.044      15.811      17.661    
  19.538      21.366      23.022      24.398      25.438      26.127      26.468      26.468      26.127      25.438    
  24.398      23.022      21.366      19.538      17.661      15.811      14.044      12.401      10.912      9.5936    
  8.4531      7.4871      6.6846      6.0293      5.5024      5.0854      4.7619      4.5184      4.3445      4.2328    
  4.1782      4.1782      4.2328      4.3445      4.5184      4.7618      5.0854      5.5024      6.0293      6.6846    
  7.3021      8.3263      9.5245      10.897      12.434      14.114      15.902      17.752      19.600      21.366    
  22.932      24.201      25.123      25.678      25.863      25.678      25.123      24.201      22.932      21.366    
  19.600      17.752      15.902      14.114      12.434      10.897      9.5245      8.3263      7.3021      6.4431    
  5.7343      5.1578      4.6952      4.3301      4.0487      3.8403      3.6971      3.6134      3.5859      3.6134    
  3.6971      3.8403      4.0487      4.3301      4.6952      5.1578      5.7343      6.4431      7.1619      8.2326    
  9.4752      10.887      12.453      14.149      15.933      17.752      19.538      21.209      22.658      23.798    
  24.576      24.970      24.970      24.576      23.798      22.658      21.208      19.538      17.752      15.933    
  14.149      12.453      10.887      9.4752      8.2326      7.1619      6.2567      5.5037      4.8859      4.3850    
  3.9845      3.6702      3.4312      3.2591      3.1479      3.0933      3.0933      3.1479      3.2591      3.4312    
  3.6702      3.9845      4.3850      4.8859      5.5037      6.2567      7.0622      8.1697      9.4450      10.881    
  12.460      14.149      15.902      17.661      19.352      20.895      22.198      23.178      23.784      23.988    
  23.784      23.178      22.198      20.895      19.352      17.661      15.902      14.149      12.460      10.881    
  9.4450      8.1697      7.0622      6.1188      5.3287      4.6756      4.1421      3.7112      3.3685      3.1027    
  2.9048      2.7684      2.6885      2.6622      2.6885      2.7684      2.9048      3.1027      3.3685      3.7112    
  4.1421      4.6756      5.3287      6.1188      7.0019      8.1379      9.4347      10.881      12.453      14.114    
  15.811      17.481      19.049      20.434      21.557      22.348      22.755      22.755      22.348      21.557    
  20.434      19.049      17.481      15.811      14.114      12.453      10.881      9.4347      8.1379      7.0019    
  6.0270      5.2047      4.5208      3.9584      3.5006      3.1328      2.8431      2.6222      2.4630      2.3601    
  2.3096      2.3096      2.3601      2.4630      2.6222      2.8431      3.1328      3.5006      3.9583      4.5208    
  5.2047      6.0270      6.9817      8.1379      9.4450      10.887      12.434      14.044      15.660      17.216    
  18.636      19.844      20.768      21.347      21.545      21.347      20.768      19.844      18.636      17.216    
  15.660      14.044      12.434      10.887      9.4450      8.1379      6.9817      5.9809      5.1305      4.4184    
  3.8292      3.3465      2.9555      2.6439      2.4019      2.2220      2.0982      2.0259      2.0022      2.0259    
  2.0982      2.2220      2.4019      2.6439      2.9555      3.3465      3.8292      4.4184      5.1305      5.9810    
  7.0019      8.1697      9.4752      10.897      12.401      13.939      15.453      16.875      18.131      19.150    
  19.869      20.241      20.241      19.869      19.150      18.131      16.875      15.453      13.939      12.401    
  10.897      9.4752      8.1697      7.0019      5.9809      5.1057      4.3674      3.7523      3.2454      2.8319    
  2.4992      2.2373      2.0381      1.8950      1.8029      1.7578      1.7578      1.8029      1.8950      2.0381    
  2.2373      2.4992      2.8319      3.2454      3.7523      4.3674      5.1057      5.9810      7.0621      8.2326    
  9.5245      10.912      12.355      13.805      15.201      16.474      17.556      18.384      18.903      19.080    
  18.903      18.384      17.556      16.474      15.201      13.805      12.355      10.912      9.5245      8.2326    
  7.0622      6.0270      5.1305      4.3674      3.7268      3.1952      2.7588      2.4050      2.1233      1.9054    
  1.7440      1.6335      1.5692      1.5481      1.5692      1.6335      1.7440      1.9054      2.1233      2.4050    
  2.7588      3.1952      3.7268      4.3674      5.1305      6.0270      7.1619      8.3263      9.5936      10.934    
  12.304      13.653      14.918      16.036      16.943      17.582      17.913      17.913      17.582      16.943    
  16.036      14.918      13.653      12.304      10.934      9.5936      8.3263      7.1619      6.1188      5.2047    
  4.4184      3.7523      3.1952      2.7346      2.3585      2.0564      1.8194      1.6401      1.5120      1.4299    
  1.3899      1.3899      1.4299      1.5120      1.6401      1.8194      2.0564      2.3585      2.7346      3.1952    
  3.7523      4.4184      5.2047      6.1188      7.3021      8.4531      9.6872      10.971      12.259      13.499    
  14.631      15.592      16.327      16.788      16.946      16.788      16.327      15.592      14.631      13.499    
  12.259      10.971      9.6872      8.4531      7.3021      6.2567      5.3287      4.5208      3.8292      3.2454    
  2.7588      2.3585      2.0344      1.7773      1.5794      1.4337      1.3345      1.2770      1.2582      1.2770    
  1.3345      1.4337      1.5794      1.7773      2.0344      2.3585      2.7588      3.2454      3.8292      4.5208    
  5.3287      6.2567      7.4871      8.6201      9.8163      11.039      12.242      13.371      14.369      15.178    
  15.749      16.044      16.044      15.749      15.178      14.369      13.371      12.242      11.039      9.8163    
  8.6201      7.4871      6.4431      5.5037      4.6756      3.9584      3.3465      2.8319      2.4050      2.0564    
  1.7773      1.5594      1.3955      1.2790      1.2047      1.1685      1.1685      1.2047      1.2790      1.3955    
  1.5594      1.7773      2.0564      2.4050      2.8319      3.3465      3.9584      4.6756      5.5037      6.4431    
  7.7265      8.8410      9.9987      11.160      12.278      13.296      14.157      14.813      15.223      15.363    
  15.223      14.813      14.157      13.296      12.278      11.160      9.9987      8.8410      7.7265      6.6846    
  5.7343      4.8859      4.1421      3.5006      2.9555      2.4992      2.1233      1.8194      1.5794      1.3955    
  1.2608      1.1694      1.1165      1.0992      1.1165      1.1694      1.2608      1.3955      1.5794      1.8194    
  2.1233      2.4992      2.9555      3.5006      4.1421      4.8859      5.7343      6.6846      8.0363      9.1352    
  10.255      11.347      12.361      13.244      13.952      14.445      14.699      14.699      14.445      13.952    
  13.244      12.361      11.347      10.255      9.1352      8.0363      6.9933      6.0293      5.1578      4.3850    
  3.7112      3.1328      2.6439      2.2373      1.9054      1.6401      1.4337      1.2790      1.1694      1.0995    
  1.0655      1.0655      1.0995      1.1694      1.2790      1.4337      1.6401      1.9054      2.2373      2.6439    
  3.1328      3.7112      4.3850      5.1578      6.0293      6.9934      8.4334      9.5047      10.556      11.540    
  12.411      13.131      13.668      13.998      14.110      13.998      13.668      13.131      12.411      11.540    
  10.556      9.5047      8.4334      7.3869      6.4028      5.5024      4.6952      3.9845      3.3685      2.8431    
  2.4019      2.0381      1.7440      1.5120      1.3345      1.2047      1.1165      1.0655      1.0488      1.0655    
  1.1165      1.2047      1.3345      1.5120      1.7440      2.0381      2.4019      2.8431      3.3685      3.9845    
  4.6952      5.5024      6.4028      7.3869      8.8863      9.8832      10.815      11.642      12.332      12.864    
  13.224      13.405      13.405      13.224      12.864      12.332      11.642      10.815      9.8832      8.8863    
  7.8680      6.8717      5.9353      5.0854      4.3301      3.6702      3.1027      2.6222      2.2220      1.8950    
  1.6335      1.4299      1.2770      1.1685      1.0992      1.0655      1.0655      1.0992      1.1685      1.2770    
  1.4299      1.6335      1.8950      2.2220      2.6222      3.1027      3.6702      4.3301      5.0854      5.9353    
  6.8717      7.8680      9.3165      10.179      10.933      11.555      12.032      12.366      12.562      12.626    
  12.562      12.366      12.032      11.555      10.933      10.179      9.3165      8.3814      7.4169      6.4672    
  5.5720      4.7619      4.0487      3.4312      2.9048      2.4630      2.0982      1.8029      1.5692      1.3899    
  1.2582      1.1685      1.1165      1.0995      1.1165      1.1685      1.2582      1.3899      1.5692      1.8029    
  2.0982      2.4630      2.9048      3.4312      4.0487      4.7619      5.5720      6.4672      7.4169      8.3814    
  9.6335      10.295      10.815      11.193      11.444      11.591      11.657      11.657      11.591      11.444    
  11.193      10.815      10.295      9.6335      8.8489      7.9767      7.0627      6.1547      5.2954      4.5184    
  3.8403      3.2591      2.7684      2.3601      2.0259      1.7578      1.5481      1.3899      1.2770      1.2047    
  1.1694      1.1694      1.2047      1.2770      1.3899      1.5481      1.7578      2.0259      2.3601      2.7684    
  3.2591      3.8403      4.5184      5.2954      6.1547      7.0627      7.9767      8.8489      9.7441      10.142    
  10.385      10.501      10.536      10.534      10.529      10.534      10.536      10.501      10.385      10.142    
  9.7441      9.1829      8.4761      7.6622      6.7925      5.9203      5.0924      4.3445      3.6971      3.1479    
  2.6885      2.3096      2.0022      1.7578      1.5692      1.4299      1.3345      1.2790      1.2608      1.2790    
  1.3345      1.4299      1.5692      1.7578      2.0022      2.3096      2.6885      3.1479      3.6971      4.3445    
  5.0924      5.9202      6.7925      7.6622      8.4761      9.1829      9.5635      9.6502      9.5955      9.4629    
  9.3231      9.2360      9.2359      9.3231      9.4629      9.5955      9.6502      9.5635      9.2937      8.8300    
  8.1930      7.4286      6.5955      5.7536      4.9535      4.2328      3.6134      3.0933      2.6622      2.3096    
  2.0259      1.8029      1.6335      1.5120      1.4337      1.3955      1.3955      1.4337      1.5120      1.6335    
  1.8029      2.0259      2.3096      2.6622      3.0933      3.6134      4.2328      4.9535      5.7536      6.5955    
  7.4286      8.1930      8.8300      9.2937      9.0278      8.7829      8.4445      8.1079      7.8629      7.7735    
  7.8629      8.1079      8.4445      8.7829      9.0278      9.0996      8.9504      8.5715      7.9917      7.2662    
  6.4628      5.6470      4.8727      4.1782      3.5859      3.0933      2.6885      2.3601      2.0982      1.8950    
  1.7440      1.6401      1.5794      1.5594      1.5794      1.6401      1.7440      1.8950      2.0982      2.3601    
  2.6885      3.0933      3.5859      4.1782      4.8727      5.6470      6.4628      7.2662      7.9917      8.5715    
  8.9504      9.0996      8.1057      7.5447      6.9720      6.5068      6.2468      6.2468      6.5068      6.9720    
  7.5447      8.1057      8.5393      8.7563      8.7094      8.3977      7.8608      7.1652      6.3866      5.5951    
  4.8462      4.1782      3.6134      3.1479      2.7684      2.4630      2.2220      2.0381      1.9054      1.8194    
  1.7773      1.7773      1.8194      1.9054      2.0381      2.2220      2.4630      2.7684      3.1479      3.6134    
  4.1782      4.8462      5.5951      6.3866      7.1652      7.8608      8.3977      8.7094      8.7563      8.5393    
  6.8069      5.9834      5.2579      4.7612      4.5847      4.7612      5.2579      5.9834      6.8069      7.5846    
  8.1877      8.5253      8.5570      8.2940      7.7885      7.1172      6.3618      5.5951      4.8727      4.2328    
  3.6971      3.2591      2.9048      2.6222      2.4019      2.2373      2.1233      2.0564      2.0344      2.0564    
  2.1233      2.2373      2.4019      2.6222      2.9048      3.2591      3.6971      4.2328      4.8727      5.5951    
  6.3618      7.1172      7.7885      8.2940      8.5570      8.5253      8.1877      7.5846      5.1858      4.1867    
  3.4117      2.9887      2.9887      3.4117      4.1867      5.1858      6.2500      7.2190      7.9601      8.3882    
  8.4754      8.2464      7.7656      7.1172      6.3866      5.6470      4.9535      4.3445      3.8403      3.4312    
  3.1027      2.8431      2.6439      2.4992      2.4050      2.3585      2.3585      2.4050      2.4992      2.6439    
  2.8431      3.1027      3.4312      3.8403      4.3445      4.9535      5.6470      6.3866      7.1172      7.7656    
  8.2464      8.4754      8.3882      7.9601      7.2190      6.2500      3.3377      2.2722      1.5593      1.3086    
  1.5593      2.2722      3.3377      4.5967      5.8707      6.9930      7.8357      8.3259      8.4501      8.2464    
  7.7886      7.1652      6.4628      5.7536      5.0924      4.5184      4.0487      3.6702      3.3685      3.1328    
  2.9555      2.8319      2.7588      2.7346      2.7588      2.8319      2.9555      3.1328      3.3685      3.6702    
  4.0487      4.5184      5.0924      5.7536      6.4628      7.1652      7.7885      8.2464      8.4500      8.3259    
  7.8357      6.9930      5.8707      4.5967      1.3914     0.37632     -.17079     -.17079     0.37633      1.3914    
  2.7310      4.2142      5.6538      6.8867      7.7967      8.3259      8.4754      8.2940      7.8608      7.2662    
  6.5956      5.9202      5.2954      4.7618      4.3301      3.9845      3.7112      3.5006      3.3465      3.2454    
  3.1952      3.1952      3.2454      3.3465      3.5006      3.7112      3.9845      4.3301      4.7619      5.2954    
  5.9202      6.5955      7.2662      7.8608      8.2940      8.4754      8.3259      7.7967      6.8868      5.6538    
  4.2142      2.7310     -.50320     -1.3594     -1.6583     -1.3594     -.50319     0.79565      2.3697      4.0273    
  5.5837      6.8868      7.8358      8.3883      8.5570      8.3977      7.9917      7.4286      6.7925      6.1547    
  5.5719      5.0854      4.6952      4.3850      4.1421      3.9583      3.8292      3.7523      3.7268      3.7523    
  3.8292      3.9584      4.1421      4.3850      4.6952      5.0854      5.5720      6.1547      6.7925      7.4286    
  7.9917      8.3977      8.5570      8.3882      7.8357      6.8868      5.5837      4.0273      2.3697     0.79565    
 -2.1892     -2.8006     -2.8006     -2.1892     -1.0434     0.49619      2.2500      4.0273      5.6538      6.9930    
  7.9601      8.5253      8.7094      8.5715      8.1930      7.6622      7.0627      6.4671      5.9353      5.5024    
  5.1578      4.8859      4.6756      4.5208      4.4184      4.3674      4.3674      4.4184      4.5208      4.6756    
  4.8859      5.1578      5.5024      5.9353      6.4672      7.0627      7.6622      8.1930      8.5715      8.7094    
  8.5253      7.9601      6.9930      5.6538      4.0273      2.2500     0.49619     -1.0434     -3.5189     -3.8324    
 -3.5189     -2.6152     -1.2255     0.49619      2.3697      4.2142      5.8707      7.2190      8.1877      8.7563    
  8.9504      8.8300      8.4761      7.9767      7.4169      6.8717      6.4028      6.0293      5.7343      5.5037    
  5.3287      5.2047      5.1305      5.1057      5.1305      5.2047      5.3287      5.5037      5.7343      6.0293    
  6.4028      6.8717      7.4169      7.9767      8.4761      8.8300      8.9504      8.7563      8.1877      7.2190    
  5.8707      4.2142      2.3697     0.49619     -1.2255     -2.6152     -4.3707     -4.3707     -3.7640     -2.6152    
 -1.0434     0.79565      2.7310      4.5967      6.2500      7.5846      8.5393      9.0996      9.2937      9.1829    
  8.8489      8.3814      7.8680      7.3869      6.9934      6.6846      6.4431      6.2567      6.1188      6.0270    
  5.9810      5.9810      6.0270      6.1188      6.2567      6.4431      6.6846      6.9934      7.3869      7.8680    
  8.3814      8.8489      9.1829      9.2937      9.0996      8.5393      7.5846      6.2500      4.5967      2.7310    
 0.79565     -1.0434     -2.6152     -3.7640     -4.3707     -3.8324     -2.8006     -1.3594     0.37633      2.2722    
  4.1867      5.9834      7.5447      8.7829      9.6502      10.142      10.295      10.179      9.8832      9.5047    
  9.1352      8.8410      8.6201      8.4531      8.3263      8.2326      8.1697      8.1379      8.1379      8.1697    
  8.2326      8.3263      8.4531      8.6201      8.8410      9.1352      9.5047      9.8832      10.179      10.295    
  10.142      9.6502      8.7829      7.5447      5.9834      4.1867      2.2722     0.37632     -1.3594     -2.8006    
 -3.8324     -4.3707     -3.8324     -3.0988     -1.9321     -.41234      1.3561      3.2509      5.1414      6.8994    
  8.4130      9.6003      10.420      10.874      11.008      10.899      10.645      10.345      10.088      9.9045    
  9.7752      9.6816      9.6125      9.5632      9.5330      9.5227      9.5330      9.5632      9.6125      9.6816    
  9.7752      9.9045      10.088      10.345      10.645      10.899      11.008      10.874      10.420      9.6004    
  8.4130      6.8994      5.1414      3.2509      1.3561     -.41234     -1.9321     -3.0988     -3.8324     -4.0827    
 -2.8006     -1.9321     -.68797     0.86129      2.6223      4.4826      6.3187      8.0079      9.4441      10.553    
  11.302      11.706      11.822      11.737      11.551      11.365      11.243      11.176      11.140      11.119    
  11.105      11.096      11.090      11.090      11.096      11.105      11.119      11.140      11.176      11.243    
  11.365      11.551      11.737      11.822      11.706      11.302      10.553      9.4441      8.0079      6.3187    
  4.4826      2.6223     0.86129     -.68797     -1.9321     -2.8006     -3.2464     -3.2464     -1.3594     -.41234    