unknown system                          
   1.00000000000000     
     0.000000    3.029200    3.029200
     3.029200    0.000000    3.029200
     3.029200    3.029200    0.000000
   In   As
     1     1
Direct
  0.000000  0.000000  0.000000
  0.250000  0.250000  0.250000
 
   48   48   48
 -.46640295937E+01 -.43706998731E+01 -.35189053983E+01 -.21891583787E+01 -.50319531070E+00
 0.13913622684E+01 0.33376842169E+01 0.51857851125E+01 0.68069456793E+01 0.81056576607E+01
 0.90277961668E+01 0.95635198711E+01 0.97441199593E+01 0.96335195555E+01 0.93165091896E+01
 0.88862940758E+01 0.84334063286E+01 0.80363061933E+01 0.77265472185E+01 0.74870961818E+01
 0.73021346899E+01 0.71619331297E+01 0.70621550163E+01 0.70019274445E+01 0.69817363655E+01
 0.70019219263E+01 0.70621455351E+01 0.71619219668E+01 0.73021238580E+01 0.74870869048E+01
 0.77265399890E+01 0.80363011397E+01 0.84334036255E+01 0.88862941876E+01 0.93165127257E+01
 0.96335266953E+01 0.97441298259E+01 0.95635304296E+01 0.90278048622E+01 0.81056624310E+01
 0.68069457697E+01 0.51857813501E+01 0.33376786889E+01 0.13913574893E+01 -.50319749511E+00
 -.21891576506E+01 -.35189030470E+01 -.43706979467E+01 -.43706998731E+01 -.38324215334E+01
 -.28005563822E+01 -.13593600619E+01 0.37632815685E+00 0.22722124439E+01 0.41866658349E+01
 0.59834485765E+01 0.75446755988E+01 0.87828968329E+01 0.96502087817E+01 0.10142174380E+02
 0.10295368861E+02 0.10179085684E+02 0.98831915180E+01 0.95046823978E+01 0.91351832920E+01
 0.88409989696E+01 0.86201392851E+01 0.84530990366E+01 0.83263191315E+01 0.82326262506E+01
 0.81697356736E+01 0.81379221561E+01 0.81379192765E+01 0.81697279729E+01 0.82326160179E+01
 0.83263087819E+01 0.84530899724E+01 0.86201315161E+01 0.88409916514E+01 0.91351758045E+01
 0.95046752949E+01 0.98831867103E+01 0.10179085595E+02 0.10295374932E+02 0.10142185843E+02
 0.96502225836E+01 0.87829088773E+01 0.75446825767E+01 0.59834493633E+01 0.41866618287E+01
 0.22722068243E+01 0.37632439541E+00 -.13593599044E+01 -.28005527763E+01 -.38324171944E+01
 -.43706979638E+01 -.35189053983E+01 -.28005563822E+01 -.16583181168E+01 -.17079226506E+00
 0.15592709816E+01 0.34117204450E+01 0.52578875253E+01 0.69719963740E+01 0.84445211489E+01
 0.95954596681E+01 0.10384516049E+02 0.10815440544E+02 0.10933240601E+02 0.10814910794E+02
 0.10555857279E+02 0.10254856293E+02 0.99987291490E+01 0.98163321579E+01 0.96872122417E+01
 0.95935737275E+01 0.95244695675E+01 0.94751680563E+01 0.94449801640E+01 0.94347477566E+01
 0.94449772371E+01 0.94751638815E+01 0.95244663096E+01 0.95935724751E+01 0.96872121417E+01
 0.98163308316E+01 0.99987241599E+01 0.10254846828E+02 0.10555845085E+02 0.10814899764E+02
 0.10933235045E+02 0.10815442961E+02 0.10384525657E+02 0.95954726598E+01 0.84445325763E+01
 0.69720025482E+01 0.52578875936E+01 0.34117164649E+01 0.15592666320E+01 -.17079369090E+00
 -.16583155288E+01 -.28005515110E+01 -.35189016310E+01 -.37639729410E+01 -.21891583787E+01
 -.13593600619E+01 -.17079226506E+00 0.13085748553E+01 0.29887081252E+01 0.47611641336E+01
 0.65068146282E+01 0.81078992555E+01 0.94629025539E+01 0.10501125209E+02 0.11193218394E+02
 0.11554767283E+02 0.11641877977E+02 0.11539826837E+02 0.11347427003E+02 0.11160470917E+02
 0.11039125604E+02 0.10970831382E+02 0.10933487705E+02 0.10911618504E+02 0.10896922218E+02
 0.10886677342E+02 0.10881141811E+02 0.10881141844E+02 0.10886678463E+02 0.10896926620E+02
 0.10911627586E+02 0.10933500413E+02 0.10970843997E+02 0.11039133169E+02 0.11160469552E+02
 0.11347415959E+02 0.11539809235E+02 0.11641859740E+02 0.11554754566E+02 0.11193214759E+02
 0.10501130074E+02 0.94629118231E+01 0.81079077222E+01 0.65068186880E+01 0.47611633085E+01
 0.29887047342E+01 0.13085722337E+01 -.17079189643E+00 -.13593568714E+01 -.21891546236E+01
 -.26152000492E+01 -.26152016919E+01 -.50319531070E+00 0.37632815685E+00 0.15592709816E+01
 0.29887081252E+01 0.45846653955E+01 0.62467809032E+01 0.78629129308E+01 0.93230609976E+01
 0.10535889814E+02 0.11443799763E+02 0.12032499722E+02 0.12332413993E+02 0.12411457504E+02
 0.12360943414E+02 0.12277985608E+02 0.12242124242E+02 0.12259439511E+02 0.12304041687E+02
 0.12355440984E+02 0.12400698140E+02 0.12433773990E+02 0.12453238808E+02 0.12459590257E+02
 0.12453239830E+02 0.12433778938E+02 0.12400710496E+02 0.12355461804E+02 0.12304067909E+02
 0.12259464561E+02 0.12242140576E+02 0.12277987915E+02 0.12360931043E+02 0.12411434955E+02
 0.12332389087E+02 0.12032480204E+02 0.11443790033E+02 0.10535889480E+02 0.93230659282E+01
 0.78629180133E+01 0.62467828151E+01 0.45846638664E+01 0.29887052286E+01 0.15592692112E+01
 0.37632866070E+00 -.50319327701E+00 -.10434431626E+01 -.12254681621E+01 -.10434449032E+01
 0.13913622684E+01 0.22722124439E+01 0.34117204450E+01 0.47611641336E+01 0.62467809032E+01
 0.77735373200E+01 0.92359489245E+01 0.10534066615E+02 0.11590829798E+02 0.12366219331E+02
 0.12864313183E+02 0.13131223003E+02 0.13244337684E+02 0.13295573411E+02 0.13371321288E+02
 0.13499321032E+02 0.13652554645E+02 0.13805342764E+02 0.13939229340E+02 0.14043502688E+02
 0.14113605575E+02 0.14148555488E+02 0.14148553946E+02 0.14113603650E+02 0.14043506639E+02
 0.13939244733E+02 0.13805370556E+02 0.13652589889E+02 0.13499354647E+02 0.13371343736E+02
 0.13295578518E+02 0.13244325039E+02 0.13131198001E+02 0.12864284645E+02 0.12366195732E+02
 0.11590815925E+02 0.10534062300E+02 0.92359503293E+01 0.77735397335E+01 0.62467812966E+01
 0.47611621200E+01 0.34117174927E+01 0.22722102580E+01 0.13913615427E+01 0.79565017177E+00
 0.49619308697E+00 0.49619285642E+00 0.79564994005E+00 0.33376842169E+01 0.41866658349E+01
 0.52578875253E+01 0.65068146282E+01 0.78629129308E+01 0.92359489245E+01 0.10529321850E+02
 0.11657338912E+02 0.12561929262E+02 0.13224212768E+02 0.13667623890E+02 0.13951571988E+02
 0.14157204643E+02 0.14368818942E+02 0.14630690706E+02 0.14918209848E+02 0.15200645323E+02
 0.15453446775E+02 0.15659981533E+02 0.15810946395E+02 0.15902290095E+02 0.15932796757E+02
 0.15902281965E+02 0.15810936798E+02 0.15659979877E+02 0.15453459865E+02 0.15200673680E+02
 0.14918247351E+02 0.14630727200E+02 0.14368844242E+02 0.14157212251E+02 0.13951561273E+02
 0.13667599976E+02 0.13224184200E+02 0.12561904422E+02 0.11657322872E+02 0.10529315113E+02
 0.92359484248E+01 0.78629144065E+01 0.65068148949E+01 0.52578855197E+01 0.41866622608E+01
 0.33376804503E+01 0.27309766179E+01 0.23696672348E+01 0.22500026091E+01 0.23696687155E+01
 0.27309794847E+01 0.51857851125E+01 0.59834485765E+01 0.69719963740E+01 0.81078992555E+01
 0.93230609976E+01 0.10534066615E+02 0.11657338912E+02 0.12626243468E+02 0.13405424939E+02
 0.13998262395E+02 0.14445151821E+02 0.14812877797E+02 0.15177855168E+02 0.15592278214E+02
 0.16036100357E+02 0.16473990236E+02 0.16875118348E+02 0.17215971052E+02 0.17480919225E+02
 0.17660994575E+02 0.17751843909E+02 0.17751836972E+02 0.17660977548E+02 0.17480901454E+02
 0.17215962709E+02 0.16875125781E+02 0.16474013571E+02 0.16036133843E+02 0.15592312546E+02
 0.15177880748E+02 0.14812887907E+02 0.14445144735E+02 0.13998241706E+02 0.13405397967E+02
 0.12626218388E+02 0.11657321731E+02 0.10534059248E+02 0.93230612628E+01 0.81079026339E+01
 0.69719984871E+01 0.59834470364E+01 0.51857800414E+01 0.45966769069E+01 0.42141528125E+01
 0.40273171086E+01 0.40273192043E+01 0.42141582613E+01 0.45966835124E+01 0.68069456793E+01
 0.75446755988E+01 0.84445211489E+01 0.94629025539E+01 0.10535889814E+02 0.11590829798E+02
 0.12561929262E+02 0.13405424939E+02 0.14109923886E+02 0.14698724452E+02 0.15223157148E+02
 0.15748587542E+02 0.16327058841E+02 0.16942701140E+02 0.17556378921E+02 0.18131265570E+02
 0.18636464989E+02 0.19048722114E+02 0.19352298403E+02 0.19537676081E+02 0.19599958706E+02
 0.19537662653E+02 0.19352276988E+02 0.19048701121E+02 0.18636452374E+02 0.18131266205E+02
 0.17556393471E+02 0.16942726153E+02 0.16327087635E+02 0.15748611852E+02 0.15223169523E+02
 0.14698720898E+02 0.14109905676E+02 0.13405398440E+02 0.12561903484E+02 0.11590812573E+02
 0.10535884487E+02 0.94629069142E+01 0.84445291191E+01 0.75446806304E+01 0.68069439952E+01
 0.62499524522E+01 0.58706606772E+01 0.56537881707E+01 0.55836522898E+01 0.56537949406E+01
 0.58706706359E+01 0.62499603273E+01 0.81056576607E+01 0.87828968329E+01 0.95954596681E+01
 0.10501125209E+02 0.11443799763E+02 0.12366219331E+02 0.13224212768E+02 0.13998262395E+02
 0.14698724452E+02 0.15362810463E+02 0.16043835085E+02 0.16788422716E+02 0.17582258879E+02
 0.18383562848E+02 0.19150313207E+02 0.19844331150E+02 0.20433947903E+02 0.20894929883E+02
 0.21208520505E+02 0.21365854668E+02 0.21365850515E+02 0.21208508929E+02 0.20894913377E+02
 0.20433930178E+02 0.19844316606E+02 0.19150306231E+02 0.18383566707E+02 0.17582274129E+02
 0.16788445739E+02 0.16043858133E+02 0.15362824184E+02 0.14698722203E+02 0.13998243984E+02
 0.13224185103E+02 0.12366193262E+02 0.11443784758E+02 0.10501124793E+02 0.95954700689E+01
 0.87829094829E+01 0.81056640962E+01 0.75846070985E+01 0.72189899615E+01 0.69930370367E+01
 0.68867473088E+01 0.68867520978E+01 0.69930484738E+01 0.72190009724E+01 0.75846106769E+01
 0.90277961668E+01 0.96502087817E+01 0.10384516049E+02 0.11193218394E+02 0.12032499722E+02
 0.12864313183E+02 0.13667623890E+02 0.14445151821E+02 0.15223157148E+02 0.16043835085E+02
 0.16945767738E+02 0.17913168977E+02 0.18902992519E+02 0.19869360833E+02 0.20767612469E+02
 0.21557438466E+02 0.22197989950E+02 0.22658247848E+02 0.22931531711E+02 0.23021724249E+02
 0.22931533417E+02 0.22658248206E+02 0.22197984998E+02 0.21557426411E+02 0.20767595837E+02
 0.19869346160E+02 0.18902987344E+02 0.17913177524E+02 0.16945787682E+02 0.16043857593E+02
 0.15223170778E+02 0.14445148528E+02 0.13667603761E+02 0.12864284797E+02 0.12032475604E+02
 0.11193208198E+02 0.10384521574E+02 0.96502236454E+01 0.90278099901E+01 0.85392939638E+01
 0.81876926644E+01 0.79600600735E+01 0.78357410244E+01 0.77966694995E+01 0.78357504609E+01
 0.79600724829E+01 0.81876993026E+01 0.85392894954E+01 0.95635198711E+01 0.10142174380E+02
 0.10815440544E+02 0.11554767283E+02 0.12332413993E+02 0.13131223003E+02 0.13951571988E+02
 0.14812877797E+02 0.15748587542E+02 0.16788422716E+02 0.17913168977E+02 0.19080149062E+02
 0.20241448750E+02 0.21347451543E+02 0.22347763683E+02 0.23178212454E+02 0.23797944367E+02
 0.24201068285E+02 0.24397777607E+02 0.24397784511E+02 0.24201084942E+02 0.23797960852E+02
 0.23178218584E+02 0.22347754954E+02 0.21347431962E+02 0.20241428787E+02 0.19080139878E+02
 0.17913176241E+02 0.16788443277E+02 0.15748610717E+02 0.14812890844E+02 0.13951567150E+02
 0.13131202113E+02 0.12332387486E+02 0.11554747965E+02 0.10815436181E+02 0.10142183846E+02
 0.95635348116E+01 0.90995974485E+01 0.87563454740E+01 0.85252578218E+01 0.83882419785E+01
 0.83258962295E+01 0.83259012218E+01 0.83882533560E+01 0.85252672816E+01 0.87563456995E+01
 0.90995871196E+01 0.97441199593E+01 0.10295368861E+02 0.10933240601E+02 0.11641877977E+02
 0.12411457504E+02 0.13244337684E+02 0.14157204643E+02 0.15177855168E+02 0.16327058841E+02
 0.17582258879E+02 0.18902992519E+02 0.20241448750E+02 0.21545219135E+02 0.22754739716E+02
 0.23783664128E+02 0.24576421943E+02 0.25123058851E+02 0.25438330919E+02 0.25540802411E+02
 0.25438353799E+02 0.25123093230E+02 0.24576451283E+02 0.23783675513E+02 0.22754730258E+02
 0.21545196801E+02 0.20241427648E+02 0.18902985338E+02 0.17582270352E+02 0.16327083406E+02
 0.15177880116E+02 0.14157217216E+02 0.13244332201E+02 0.12411438285E+02 0.11641856274E+02
 0.10933227604E+02 0.10295369300E+02 0.97441301424E+01 0.92937271697E+01 0.89503696574E+01
 0.87094133520E+01 0.85569875718E+01 0.84753833986E+01 0.84500508216E+01 0.84753918369E+01
 0.85569985672E+01 0.87094191086E+01 0.89503658243E+01 0.92937161193E+01 0.96335195555E+01
 0.10179085684E+02 0.10814910794E+02 0.11539826837E+02 0.12360943414E+02 0.13295573411E+02
 0.14368818942E+02 0.15592278214E+02 0.16942701140E+02 0.18383562848E+02 0.19869360833E+02
 0.21347451543E+02 0.22754739716E+02 0.23988079556E+02 0.24969790480E+02 0.25678073655E+02
 0.26126944842E+02 0.26342276226E+02 0.26342292670E+02 0.26126986445E+02 0.25678121544E+02
 0.24969824760E+02 0.23988089055E+02 0.22754726317E+02 0.21347427855E+02 0.19869343115E+02
 0.18383562765E+02 0.16942720216E+02 0.15592307677E+02 0.14368845052E+02 0.13295585166E+02
 0.12360938213E+02 0.11539811068E+02 0.10814895333E+02 0.10179079168E+02 0.96335235209E+01
 0.91829058003E+01 0.88299639160E+01 0.85715416408E+01 0.83976660313E+01 0.82939714031E+01
 0.82464370578E+01 0.82464414329E+01 0.82939817406E+01 0.83976756848E+01 0.85715443970E+01
 0.88299584095E+01 0.91828969673E+01 0.93165091896E+01 0.98831915180E+01 0.10555857279E+02
 0.11347427003E+02 0.12277985608E+02 0.13371321288E+02 0.14630690706E+02 0.16036100357E+02
 0.17556378921E+02 0.19150313207E+02 0.20767612469E+02 0.22347763683E+02 0.23783664128E+02
 0.24969790480E+02 0.25862909605E+02 0.26467671385E+02 0.26811875725E+02 0.26922952977E+02
 0.26811911668E+02 0.26467727438E+02 0.25862962425E+02 0.24969820971E+02 0.23783666074E+02
 0.22347745052E+02 0.20767589708E+02 0.19150302317E+02 0.17556387968E+02 0.16036126555E+02
 0.14630722862E+02 0.13371346172E+02 0.12277994988E+02 0.11347421570E+02 0.10555845210E+02
 0.98831827194E+01 0.93165090737E+01 0.88488717799E+01 0.84760599300E+01 0.81930362298E+01
 0.79916802340E+01 0.78608267527E+01 0.77885473595E+01 0.77656162709E+01 0.77885550678E+01
 0.78608372250E+01 0.79916868315E+01 0.81930350913E+01 0.84760527648E+01 0.88488649460E+01
 0.88862940758E+01 0.95046823978E+01 0.10254856293E+02 0.11160470917E+02 0.12242124242E+02
 0.13499321032E+02 0.14918209848E+02 0.16473990236E+02 0.18131265570E+02 0.19844331150E+02
 0.21557438466E+02 0.23178212454E+02 0.24576421943E+02 0.25678073655E+02 0.26467671385E+02
 0.26965955922E+02 0.27204399898E+02 0.27204420136E+02 0.26966007872E+02 0.26467733185E+02
 0.25678121293E+02 0.24576440864E+02 0.23178203482E+02 0.21557415242E+02 0.19844311593E+02
 0.18131262809E+02 0.16474007398E+02 0.14918240036E+02 0.13499351692E+02 0.12242143922E+02
 0.11160475213E+02 0.10254849541E+02 0.95046739383E+01 0.88862918093E+01 0.83813987899E+01
 0.79767490908E+01 0.76622237342E+01 0.74285934062E+01 0.72662008363E+01 0.71652008676E+01
 0.71171667990E+01 0.71171706186E+01 0.71652095856E+01 0.72662082158E+01 0.74285941426E+01
 0.76622171203E+01 0.79767395509E+01 0.83813930148E+01 0.84334063286E+01 0.91351832920E+01
 0.99987291490E+01 0.11039125604E+02 0.12259439511E+02 0.13652554645E+02 0.15200645323E+02
 0.16875118348E+02 0.18636464989E+02 0.20433947903E+02 0.22197989950E+02 0.23797944367E+02
 0.25123058851E+02 0.26126944842E+02 0.26811875725E+02 0.27204399898E+02 0.27331591701E+02
 0.27204437543E+02 0.26811934503E+02 0.26127000357E+02 0.25123091034E+02 0.23797946481E+02
 0.22197970019E+02 0.20433922800E+02 0.18636451152E+02 0.16875124106E+02 0.15200668196E+02
 0.13652584121E+02 0.12259463313E+02 0.11039136094E+02 0.99987266982E+01 0.91351750391E+01
 0.84334012604E+01 0.78680351004E+01 0.74168609812E+01 0.70627329187E+01 0.67925079020E+01
 0.65955489361E+01 0.64627533942E+01 0.63865672189E+01 0.63617975374E+01 0.63865724841E+01
 0.64627595284E+01 0.65955502250E+01 0.67925014805E+01 0.70627211823E+01 0.74168503574E+01
 0.78680317127E+01 0.80363061933E+01 0.88409989696E+01 0.98163321579E+01 0.10970831382E+02
 0.12304041687E+02 0.13805342764E+02 0.15453446775E+02 0.17215971052E+02 0.19048722114E+02
 0.20894929883E+02 0.22658247848E+02 0.24201068285E+02 0.25438330919E+02 0.26342276226E+02
 0.26922952977E+02 0.27204420136E+02 0.27204437543E+02 0.26922997072E+02 0.26342327136E+02
 0.25438367605E+02 0.24201078725E+02 0.22658233624E+02 0.20894903775E+02 0.19048700715E+02
 0.17215966261E+02 0.15453460473E+02 0.13805367243E+02 0.12304065053E+02 0.10970844262E+02
 0.98163319717E+01 0.88409901997E+01 0.80362972222E+01 0.73868857926E+01 0.68716637502E+01
 0.64671614491E+01 0.61546637013E+01 0.59202515242E+01 0.57535926828E+01 0.56469963820E+01
 0.55951080040E+01 0.55951100101E+01 0.56470004426E+01 0.57535941953E+01 0.59202465085E+01
 0.61546522149E+01 0.64671484616E+01 0.68716561816E+01 0.73868875845E+01 0.77265472185E+01
 0.86201392851E+01 0.96872122417E+01 0.10933487705E+02 0.12355440984E+02 0.13939229340E+02
 0.15659981533E+02 0.17480919225E+02 0.19352298403E+02 0.21208520505E+02 0.22931531711E+02
 0.24397777607E+02 0.25540802411E+02 0.26342292670E+02 0.26811911668E+02 0.26966007872E+02
 0.26811934503E+02 0.26342327136E+02 0.25540832096E+02 0.24397789480E+02 0.22931522532E+02
 0.21208497720E+02 0.19352275448E+02 0.17480908162E+02 0.15659987123E+02 0.13939247475E+02
 0.12355461781E+02 0.10933501196E+02 0.96872134616E+01 0.86201302247E+01 0.77265349476E+01
 0.69933471087E+01 0.64027887784E+01 0.59353141600E+01 0.55719609792E+01 0.52954063622E+01
 0.50923614422E+01 0.49535427039E+01 0.48727092939E+01 0.48461767048E+01 0.48727120548E+01
 0.49535450347E+01 0.50923594053E+01 0.52953984666E+01 0.55719498619E+01 0.59353054459E+01
 0.64027876693E+01 0.69933548014E+01 0.74870961818E+01 0.84530990366E+01 0.95935737275E+01
 0.10911618504E+02 0.12400698140E+02 0.14043502688E+02 0.15810946395E+02 0.17660994575E+02
 0.19537676081E+02 0.21365854668E+02 0.23021724249E+02 0.24397784511E+02 0.25438353799E+02
 0.26126986445E+02 0.26467727438E+02 0.26467733185E+02 0.26127000357E+02 0.25438367605E+02
 0.24397789480E+02 0.23021716279E+02 0.21365836880E+02 0.19537657055E+02 0.17660983382E+02
 0.15810947761E+02 0.14043515001E+02 0.12400714739E+02 0.10911631163E+02 0.95935767343E+01
 0.84530919746E+01 0.74870837761E+01 0.66845830221E+01 0.60292646248E+01 0.55023687056E+01
 0.50853724338E+01 0.47618550706E+01 0.45183708787E+01 0.43445455353E+01 0.42328117709E+01
 0.41781750937E+01 0.41781768095E+01 0.42328153851E+01 0.43445477064E+01 0.45183691216E+01
 0.47618496963E+01 0.50853665846E+01 0.55023667028E+01 0.60292694466E+01 0.66845940296E+01
 0.73021346899E+01 0.83263191315E+01 0.95244695675E+01 0.10896922218E+02 0.12433773990E+02
 0.14113605575E+02 0.15902290095E+02 0.17751843909E+02 0.19599958706E+02 0.21365850515E+02
 0.22931533417E+02 0.24201084942E+02 0.25123093230E+02 0.25678121544E+02 0.25862962425E+02
 0.25678121293E+02 0.25123091034E+02 0.24201078725E+02 0.22931522532E+02 0.21365836880E+02
 0.19599946421E+02 0.17751837388E+02 0.15902291700E+02 0.14113614208E+02 0.12433785504E+02
 0.10896931439E+02 0.95244727359E+01 0.83263154705E+01 0.73021264291E+01 0.64430800116E+01
 0.57343022841E+01 0.51577909848E+01 0.46952286029E+01 0.43300785037E+01 0.40486575463E+01
 0.38403064799E+01 0.36970783901E+01 0.36133904494E+01 0.35858739496E+01 0.36133939472E+01
 0.36970836075E+01 0.38403108928E+01 0.40486594499E+01 0.43300781918E+01 0.46952282921E+01
 0.51577933711E+01 0.57343086264E+01 0.64430890216E+01 0.71619331297E+01 0.82326262506E+01
 0.94751680563E+01 0.10886677342E+02 0.12453238808E+02 0.14148555488E+02 0.15932796757E+02
 0.17751836972E+02 0.19537662653E+02 0.21208508929E+02 0.22658248206E+02 0.23797960852E+02
 0.24576451283E+02 0.24969824760E+02 0.24969820971E+02 0.24576440864E+02 0.23797946481E+02
 0.22658233624E+02 0.21208497720E+02 0.19537657055E+02 0.17751837388E+02 0.15932801940E+02
 0.14148562993E+02 0.12453245679E+02 0.10886681203E+02 0.94751681578E+01 0.82326235711E+01
 0.71619294049E+01 0.62567043150E+01 0.55037224670E+01 0.48858508517E+01 0.43849987559E+01
 0.39844534966E+01 0.36701955891E+01 0.34312047196E+01 0.32591374436E+01 0.31478783933E+01
 0.30933050038E+01 0.30933068579E+01 0.31478834815E+01 0.32591443254E+01 0.34312113229E+01
 0.36702002348E+01 0.39844558951E+01 0.43849999483E+01 0.48858522046E+01 0.55037247954E+01
 0.62567076763E+01 0.70621550163E+01 0.81697356736E+01 0.94449801640E+01 0.10881141811E+02
 0.12459590257E+02 0.14148553946E+02 0.15902281965E+02 0.17660977548E+02 0.19352276988E+02
 0.20894913377E+02 0.22197984998E+02 0.23178218584E+02 0.23783675513E+02 0.23988089055E+02
 0.23783666074E+02 0.23178203482E+02 0.22197970019E+02 0.20894903775E+02 0.19352275448E+02
 0.17660983382E+02 0.15902291700E+02 0.14148562993E+02 0.12459595006E+02 0.10881141183E+02
 0.94449757900E+01 0.81697306400E+01 0.70621520426E+01 0.61188435303E+01 0.53286550292E+01
 0.46756331275E+01 0.41420934534E+01 0.37111963609E+01 0.33685411914E+01 0.31026749645E+01
 0.29048233183E+01 0.27683666290E+01 0.26885003825E+01 0.26622232640E+01 0.26885031810E+01
 0.27683716063E+01 0.29048292659E+01 0.31026803078E+01 0.33685444755E+01 0.37111968193E+01
 0.41420913675E+01 0.46756298056E+01 0.53286523918E+01 0.61188433531E+01 0.70019274445E+01
 0.81379221561E+01 0.94347477566E+01 0.10881141844E+02 0.12453239830E+02 0.14113603650E+02
 0.15810936798E+02 0.17480901454E+02 0.19048701121E+02 0.20433930178E+02 0.21557426411E+02
 0.22347754954E+02 0.22754730258E+02 0.22754726317E+02 0.22347745052E+02 0.21557415242E+02
 0.20433922800E+02 0.19048700715E+02 0.17480908162E+02 0.15810947761E+02 0.14113614208E+02
 0.12453245679E+02 0.10881141183E+02 0.94347420496E+01 0.81379149914E+01 0.70019224342E+01
 0.60270163856E+01 0.52047341315E+01 0.45208156668E+01 0.39583555375E+01 0.35005931799E+01
 0.31328040037E+01 0.28430746543E+01 0.26221674054E+01 0.24629734969E+01 0.23600678325E+01
 0.23096255936E+01 0.23096260621E+01 0.23600690988E+01 0.24629751995E+01 0.26221689901E+01
 0.28430752958E+01 0.31328027260E+01 0.35005894463E+01 0.39583499519E+01 0.45208100782E+01
 0.52047308993E+01 0.60270172326E+01 0.69817363655E+01 0.81379192765E+01 0.94449772371E+01
 0.10886678463E+02 0.12433778938E+02 0.14043506639E+02 0.15659979877E+02 0.17215962709E+02
 0.18636452374E+02 0.19844316606E+02 0.20767595837E+02 0.21347431962E+02 0.21545196801E+02
 0.21347427855E+02 0.20767589708E+02 0.19844311593E+02 0.18636451152E+02 0.17215966261E+02
 0.15659987123E+02 0.14043515001E+02 0.12433785504E+02 0.10886681203E+02 0.94449757900E+01
 0.81379149914E+01 0.69817315930E+01 0.59809494323E+01 0.51304795781E+01 0.44184173580E+01
 0.38291926429E+01 0.33465110348E+01 0.29555221991E+01 0.26439031660E+01 0.24019414417E+01
 0.22220469248E+01 0.20982321184E+01 0.20259280982E+01 0.20021721856E+01 0.20259268507E+01
 0.20982298389E+01 0.22220439117E+01 0.24019378995E+01 0.26438991258E+01 0.29555176458E+01
 0.33465062123E+01 0.38291883140E+01 0.44184147153E+01 0.51304796855E+01 0.59809524584E+01
 0.70019219263E+01 0.81697279729E+01 0.94751638815E+01 0.10896926620E+02 0.12400710496E+02
 0.13939244733E+02 0.15453459865E+02 0.16875125781E+02 0.18131266205E+02 0.19150306231E+02
 0.19869346160E+02 0.20241428787E+02 0.20241427648E+02 0.19869343115E+02 0.19150302317E+02
 0.18131262809E+02 0.16875124106E+02 0.15453460473E+02 0.13939247475E+02 0.12400714739E+02
 0.10896931439E+02 0.94751681578E+01 0.81697306400E+01 0.70019224342E+01 0.59809494323E+01
 0.51057084886E+01 0.43673541135E+01 0.37523334375E+01 0.32453737939E+01 0.28318613610E+01
 0.24992305215E+01 0.22373310258E+01 0.20380954977E+01 0.18950166004E+01 0.18028681587E+01
 0.17578244102E+01 0.17578232188E+01 0.18028648082E+01 0.18950116837E+01 0.20380898213E+01
 0.22373254836E+01 0.24992259724E+01 0.28318584545E+01 0.32453728075E+01 0.37523342211E+01
 0.43673561060E+01 0.51057107486E+01 0.59809507948E+01 0.70621455351E+01 0.82326160179E+01
 0.95244663096E+01 0.10911627586E+02 0.12355461804E+02 0.13805370556E+02 0.15200673680E+02
 0.16474013571E+02 0.17556393471E+02 0.18383566707E+02 0.18902987344E+02 0.19080139878E+02
 0.18902985338E+02 0.18383562765E+02 0.17556387968E+02 0.16474007398E+02 0.15200668196E+02
 0.13805367243E+02 0.12355461781E+02 0.10911631163E+02 0.95244727359E+01 0.82326235711E+01
 0.70621520426E+01 0.60270163856E+01 0.51304795781E+01 0.43673541135E+01 0.37268022203E+01
 0.31952371682E+01 0.27587984529E+01 0.24049895602E+01 0.21233489467E+01 0.19053565400E+01
 0.17440053919E+01 0.16334811804E+01 0.15691940804E+01 0.15481193867E+01 0.15691921042E+01
 0.16334776376E+01 0.17440010717E+01 0.19053525036E+01 0.21233463031E+01 0.24049891451E+01
 0.27588004920E+01 0.31952410525E+01 0.37268065358E+01 0.43673570240E+01 0.51304795087E+01
 0.60270127346E+01 0.71619219668E+01 0.83263087819E+01 0.95935724751E+01 0.10933500413E+02
 0.12304067909E+02 0.13652589889E+02 0.14918247351E+02 0.16036133843E+02 0.16942726153E+02
 0.17582274129E+02 0.17913177524E+02 0.17913176241E+02 0.17582270352E+02 0.16942720216E+02
 0.16036126555E+02 0.14918240036E+02 0.13652584121E+02 0.12304065053E+02 0.10933501196E+02
 0.95935767343E+01 0.83263154705E+01 0.71619294049E+01 0.61188435303E+01 0.52047341315E+01
 0.44184173580E+01 0.37523334375E+01 0.31952371682E+01 0.27346302818E+01 0.23585371015E+01
 0.20564369190E+01 0.18194476071E+01 0.16400831546E+01 0.15119792993E+01 0.14298690559E+01
 0.13898616866E+01 0.13898612029E+01 0.14298678416E+01 0.15119779767E+01 0.16400825194E+01
 0.18194483854E+01 0.20564395261E+01 0.23585414133E+01 0.27346355005E+01 0.31952419312E+01
 0.37523362227E+01 0.44184170436E+01 0.52047304492E+01 0.61188372089E+01 0.73021238580E+01
 0.84530899724E+01 0.96872121417E+01 0.10970843997E+02 0.12259464561E+02 0.13499354647E+02
 0.14630727200E+02 0.15592312546E+02 0.16327087635E+02 0.16788445739E+02 0.16945787682E+02
 0.16788443277E+02 0.16327083406E+02 0.15592307677E+02 0.14630722862E+02 0.13499351692E+02
 0.12259463313E+02 0.10970844262E+02 0.96872134616E+01 0.84530919746E+01 0.73021264291E+01
 0.62567043150E+01 0.53286550292E+01 0.45208156668E+01 0.38291926429E+01 0.32453737939E+01
 0.27587984529E+01 0.23585371015E+01 0.20343857873E+01 0.17772990381E+01 0.15793810901E+01
 0.14337456656E+01 0.13345058780E+01 0.12770010851E+01 0.12581873484E+01 0.12770011289E+01
 0.13345064684E+01 0.14337474646E+01 0.15793844813E+01 0.17773038573E+01 0.20343913055E+01
 0.23585422102E+01 0.27588020034E+01 0.32453750287E+01 0.38291915393E+01 0.45208129362E+01
 0.53286517046E+01 0.62567012047E+01 0.74870869048E+01 0.86201315161E+01 0.98163308316E+01
 0.11039133169E+02 0.12242140576E+02 0.13371343736E+02 0.14368844242E+02 0.15177880748E+02
 0.15748611852E+02 0.16043858133E+02 0.16043857593E+02 0.15748610717E+02 0.15177880116E+02
 0.14368845052E+02 0.13371346172E+02 0.12242143922E+02 0.11039136094E+02 0.98163319717E+01
 0.86201302247E+01 0.74870837761E+01 0.64430800116E+01 0.55037224670E+01 0.46756331275E+01
 0.39583555375E+01 0.33465110348E+01 0.28318613610E+01 0.24049895602E+01 0.20564369190E+01
 0.17772990381E+01 0.15594318143E+01 0.13954923590E+01 0.12790185246E+01 0.12046543348E+01
 0.11685048115E+01 0.11685050058E+01 0.12046551509E+01 0.12790204724E+01 0.13954957652E+01
 0.15594363852E+01 0.17773037750E+01 0.20564405026E+01 0.24049909902E+01 0.28318604893E+01
 0.33465087282E+01 0.39583533680E+01 0.46756326307E+01 0.55037242610E+01 0.64430833385E+01
 0.77265399890E+01 0.88409916514E+01 0.99987241599E+01 0.11160469552E+02 0.12277987915E+02
 0.13295578518E+02 0.14157212251E+02 0.14812887907E+02 0.15223169523E+02 0.15362824184E+02
 0.15223170778E+02 0.14812890844E+02 0.14157217216E+02 0.13295585166E+02 0.12277994988E+02
 0.11160475213E+02 0.99987266982E+01 0.88409901997E+01 0.77265349476E+01 0.66845830221E+01
 0.57343022841E+01 0.48858508517E+01 0.41420934534E+01 0.35005931799E+01 0.29555221991E+01
 0.24992305215E+01 0.21233489467E+01 0.18194476071E+01 0.15793810901E+01 0.13954923590E+01
 0.12608190101E+01 0.11693744757E+01 0.11164990480E+01 0.10992159050E+01 0.11164994855E+01
 0.11693755252E+01 0.12608207736E+01 0.13954945622E+01 0.15793829817E+01 0.18194482187E+01
 0.21233476416E+01 0.24992275323E+01 0.29555187776E+01 0.35005911602E+01 0.41420943858E+01
 0.48858551692E+01 0.57343089830E+01 0.66845900350E+01 0.80363011397E+01 0.91351758045E+01
 0.10254846828E+02 0.11347415959E+02 0.12360931043E+02 0.13244325039E+02 0.13951561273E+02
 0.14445144735E+02 0.14698720898E+02 0.14698722203E+02 0.14445148528E+02 0.13951567150E+02
 0.13244332201E+02 0.12360938213E+02 0.11347421570E+02 0.10254849541E+02 0.91351750391E+01
 0.80362972222E+01 0.69933471087E+01 0.60292646248E+01 0.51577909848E+01 0.43849987559E+01
 0.37111963609E+01 0.31328040037E+01 0.26439031660E+01 0.22373310258E+01 0.19053565400E+01
 0.16400831546E+01 0.14337456656E+01 0.12790185246E+01 0.11693744757E+01 0.10994701224E+01
 0.10655061312E+01 0.10655064252E+01 0.10994708601E+01 0.11693752323E+01 0.12790186710E+01
 0.14337445702E+01 0.16400804587E+01 0.19053523951E+01 0.22373262079E+01 0.26438989838E+01
 0.31328019070E+01 0.37111973260E+01 0.43850028041E+01 0.51577971855E+01 0.60292715252E+01
 0.69933531899E+01 0.84334036255E+01 0.95046752949E+01 0.10555845085E+02 0.11539809235E+02
 0.12411434955E+02 0.13131198001E+02 0.13667599976E+02 0.13998241706E+02 0.14109905676E+02
 0.13998243984E+02 0.13667603761E+02 0.13131202113E+02 0.12411438285E+02 0.11539811068E+02
 0.10555845210E+02 0.95046739383E+01 0.84334012604E+01 0.73868857926E+01 0.64027887784E+01
 0.55023687056E+01 0.46952286029E+01 0.39844534966E+01 0.33685411914E+01 0.28430746543E+01
 0.24019414417E+01 0.20380954977E+01 0.17440053919E+01 0.15119792993E+01 0.13345058780E+01
 0.12046543348E+01 0.11164990480E+01 0.10655061312E+01 0.10488318299E+01 0.10655071713E+01
 0.11165002545E+01 0.12046544548E+01 0.13345039560E+01 0.15119751687E+01 0.17439997856E+01
 0.20380897829E+01 0.24019370901E+01 0.28430726497E+01 0.33685416606E+01 0.39844557933E+01
 0.46952317887E+01 0.55023720640E+01 0.64027919870E+01 0.73868887097E+01 0.88862941876E+01
 0.98831867103E+01 0.10814899764E+02 0.11641859740E+02 0.12332389087E+02 0.12864284645E+02
 0.13224184200E+02 0.13405397967E+02 0.13405398440E+02 0.13224185103E+02 0.12864284797E+02
 0.12332387486E+02 0.11641856274E+02 0.10814895333E+02 0.98831827194E+01 0.88862918093E+01
 0.78680351004E+01 0.68716637502E+01 0.59353141600E+01 0.50853724338E+01 0.43300785037E+01
 0.36701955891E+01 0.31026749645E+01 0.26221674054E+01 0.22220469248E+01 0.18950166004E+01
 0.16334811804E+01 0.14298690559E+01 0.12770010851E+01 0.11685048115E+01 0.10992159050E+01
 0.10655064252E+01 0.10655071713E+01 0.10992175504E+01 0.11685059712E+01 0.12770004664E+01
 0.14298662284E+01 0.16334768091E+01 0.18950120954E+01 0.22220437179E+01 0.26221661982E+01
 0.31026753644E+01 0.36701964088E+01 0.43300785653E+01 0.50853713220E+01 0.59353124266E+01