   2   2   1   0
  0.2779610E+02  0.4283936E-09  0.4283936E-09  0.4283936E-09  0.5000000E-15
  1.000000000000000E-004
  CAR 
 unknown system                          
     27.55980393    -10.26327350  301      3.29908981      1.00000000
    -10.263  0.0000E+00  0.0000E+00
    -10.137  0.0000E+00  0.0000E+00
    -10.011  0.0000E+00  0.0000E+00
     -9.885  0.0000E+00  0.0000E+00
     -9.759  0.0000E+00  0.0000E+00
     -9.633  0.0000E+00  0.0000E+00
     -9.507  0.0000E+00  0.0000E+00
     -9.381  0.0000E+00  0.0000E+00
     -9.255  0.0000E+00  0.0000E+00
     -9.129  0.0000E+00  0.0000E+00
     -9.003  0.0000E+00  0.0000E+00
     -8.876  0.0000E+00  0.0000E+00
     -8.750  0.1266E-08  0.1597E-09
     -8.624  0.7532E-02  0.9496E-03
     -8.498  0.1180E+01  0.1497E+00
     -8.372  0.1228E+01  0.3045E+00
     -8.246  0.7681E+00  0.4014E+00
     -8.120  0.6292E+00  0.4807E+00
     -7.994  0.5575E+00  0.5510E+00
     -7.868  0.5161E+00  0.6161E+00
     -7.742  0.4938E+00  0.6783E+00
     -7.616  0.4875E+00  0.7398E+00
     -7.490  0.5013E+00  0.8030E+00
     -7.364  0.5667E+00  0.8744E+00
     -7.237  0.1295E+01  0.1038E+01
     -7.111  0.1055E+01  0.1171E+01
     -6.985  0.8609E+00  0.1279E+01
     -6.859  0.1018E+01  0.1408E+01
     -6.733  0.3701E+01  0.1874E+01
     -6.607  0.9968E+00  0.2000E+01
     -6.481  0.8776E-04  0.2000E+01
     -6.355  0.7334E-13  0.2000E+01
     -6.229  0.0000E+00  0.2000E+01
     -6.103  0.0000E+00  0.2000E+01
     -5.977  0.0000E+00  0.2000E+01
     -5.851  0.0000E+00  0.2000E+01
     -5.725  0.0000E+00  0.2000E+01
     -5.598  0.0000E+00  0.2000E+01
     -5.472  0.0000E+00  0.2000E+01
     -5.346  0.0000E+00  0.2000E+01
     -5.220  0.0000E+00  0.2000E+01
     -5.094  0.0000E+00  0.2000E+01
     -4.968  0.0000E+00  0.2000E+01
     -4.842  0.0000E+00  0.2000E+01
     -4.716  0.0000E+00  0.2000E+01
     -4.590  0.0000E+00  0.2000E+01
     -4.464  0.0000E+00  0.2000E+01
     -4.338  0.0000E+00  0.2000E+01
     -4.212  0.0000E+00  0.2000E+01
     -4.086  0.0000E+00  0.2000E+01
     -3.959  0.0000E+00  0.2000E+01
     -3.833  0.0000E+00  0.2000E+01
     -3.707  0.0000E+00  0.2000E+01
     -3.581  0.0000E+00  0.2000E+01
     -3.455  0.0000E+00  0.2000E+01
     -3.329  0.0000E+00  0.2000E+01
     -3.203  0.0000E+00  0.2000E+01
     -3.077  0.0000E+00  0.2000E+01
     -2.951  0.0000E+00  0.2000E+01
     -2.825  0.0000E+00  0.2000E+01
     -2.699  0.7086E-07  0.2000E+01
     -2.573  0.4434E-01  0.2006E+01
     -2.447  0.2017E+01  0.2260E+01
     -2.320  0.4047E+01  0.2770E+01
     -2.194  0.1814E+01  0.2999E+01
     -2.068  0.4173E+00  0.3051E+01
     -1.942  0.3384E+00  0.3094E+01
     -1.816  0.2921E+00  0.3131E+01
     -1.690  0.2700E+00  0.3165E+01
     -1.564  0.2495E+00  0.3196E+01
     -1.438  0.2297E+00  0.3225E+01
     -1.312  0.2185E+00  0.3253E+01
     -1.186  0.2079E+00  0.3279E+01
     -1.060  0.1994E+00  0.3304E+01
     -0.934  0.1936E+00  0.3329E+01
     -0.808  0.1897E+00  0.3353E+01
     -0.681  0.1869E+00  0.3376E+01
     -0.555  0.1849E+00  0.3399E+01
     -0.429  0.1824E+00  0.3422E+01
     -0.303  0.1774E+00  0.3445E+01
     -0.177  0.1696E+00  0.3466E+01
     -0.051  0.3868E+00  0.3515E+01
      0.075  0.6290E+00  0.3594E+01
      0.201  0.9749E+00  0.3717E+01
      0.327  0.1075E+01  0.3853E+01
      0.453  0.1746E+01  0.4073E+01
      0.579  0.1844E+01  0.4305E+01
      0.705  0.1439E+01  0.4487E+01
      0.831  0.1420E+01  0.4666E+01
      0.958  0.2036E+01  0.4923E+01
      1.084  0.1964E+01  0.5170E+01
      1.210  0.9795E+00  0.5294E+01
      1.336  0.8968E+00  0.5407E+01
      1.462  0.9533E+00  0.5527E+01
      1.588  0.8996E+00  0.5640E+01
      1.714  0.8936E+00  0.5753E+01
      1.840  0.8940E+00  0.5866E+01
      1.966  0.8839E+00  0.5977E+01
      2.092  0.9337E+00  0.6095E+01
      2.218  0.1120E+01  0.6236E+01
      2.344  0.2386E+01  0.6537E+01
      2.470  0.1547E+01  0.6732E+01
      2.597  0.1245E+01  0.6889E+01
      2.723  0.1183E+01  0.7038E+01
      2.849  0.1168E+01  0.7185E+01
      2.975  0.1237E+01  0.7341E+01
      3.101  0.1524E+01  0.7533E+01
      3.227  0.2142E+01  0.7803E+01
      3.353  0.1849E+01  0.8037E+01
      3.479  0.1779E+00  0.8059E+01
      3.605  0.1734E+00  0.8081E+01
      3.731  0.1852E+00  0.8104E+01
      3.857  0.1926E+00  0.8128E+01
      3.983  0.1973E+00  0.8153E+01
      4.109  0.2010E+00  0.8179E+01
      4.236  0.3732E+00  0.8226E+01
      4.362  0.1234E+01  0.8381E+01
      4.488  0.9391E+00  0.8500E+01
      4.614  0.1028E+01  0.8629E+01
      4.740  0.2783E+00  0.8664E+01
      4.866  0.7939E+00  0.8765E+01
      4.992  0.1095E+01  0.8903E+01
      5.118  0.7121E+00  0.8992E+01
      5.244  0.6173E+00  0.9070E+01
      5.370  0.9191E+00  0.9186E+01
      5.496  0.1518E+01  0.9377E+01
      5.622  0.1203E+01  0.9529E+01
      5.748  0.1175E+01  0.9677E+01
      5.875  0.1321E+01  0.9844E+01
      6.001  0.1071E+01  0.9979E+01
      6.127  0.8890E+00  0.1009E+02
      6.253  0.4538E+00  0.1015E+02
      6.379  0.4371E+00  0.1020E+02
      6.505  0.4378E+00  0.1026E+02
      6.631  0.4371E+00  0.1031E+02
      6.757  0.4464E+00  0.1037E+02
      6.883  0.4562E+00  0.1043E+02
      7.009  0.4806E+00  0.1049E+02
      7.135  0.7737E+00  0.1059E+02
      7.261  0.3637E+01  0.1104E+02
      7.387  0.3027E+01  0.1143E+02
      7.514  0.2621E+01  0.1176E+02
      7.640  0.2154E+01  0.1203E+02
      7.766  0.1551E+01  0.1222E+02
      7.892  0.1363E+01  0.1240E+02
      8.018  0.3775E+01  0.1287E+02
      8.144  0.1535E+01  0.1306E+02
      8.270  0.1062E+01  0.1320E+02
      8.396  0.2133E+01  0.1347E+02
      8.522  0.1405E+01  0.1364E+02
      8.648  0.7148E+00  0.1373E+02
      8.774  0.6775E+00  0.1382E+02
      8.900  0.6798E+00  0.1391E+02
      9.026  0.7610E+00  0.1400E+02
      9.153  0.7093E+00  0.1409E+02
      9.279  0.3984E+00  0.1414E+02
      9.405  0.8185E+00  0.1424E+02
      9.531  0.7850E+00  0.1434E+02
      9.657  0.6729E+00  0.1443E+02
      9.783  0.6406E+00  0.1451E+02
      9.909  0.6606E+00  0.1459E+02
     10.035  0.1074E+01  0.1473E+02
     10.161  0.1417E+01  0.1491E+02
     10.287  0.1301E+01  0.1507E+02
     10.413  0.1435E+01  0.1525E+02
     10.539  0.8415E+00  0.1536E+02
     10.665  0.8713E+00  0.1547E+02
     10.792  0.8899E+00  0.1558E+02
     10.918  0.1357E+01  0.1575E+02
     11.044  0.1479E+01  0.1594E+02
     11.170  0.1124E+01  0.1608E+02
     11.296  0.1087E+01  0.1622E+02
     11.422  0.1123E+01  0.1636E+02
     11.548  0.1384E+01  0.1653E+02
     11.674  0.1400E+01  0.1671E+02
     11.800  0.2452E+01  0.1702E+02
     11.926  0.2225E+01  0.1730E+02
     12.052  0.1616E+01  0.1750E+02
     12.178  0.1782E+01  0.1773E+02
     12.304  0.2502E+01  0.1804E+02
     12.431  0.1806E+01  0.1827E+02
     12.557  0.1790E+01  0.1850E+02
     12.683  0.1308E+01  0.1866E+02
     12.809  0.2066E+01  0.1892E+02
     12.935  0.1926E+01  0.1916E+02
     13.061  0.2278E+01  0.1945E+02
     13.187  0.1224E+01  0.1961E+02
     13.313  0.1082E+01  0.1974E+02
     13.439  0.8536E+00  0.1985E+02
     13.565  0.7912E+00  0.1995E+02
     13.691  0.2399E+01  0.2025E+02
     13.817  0.2176E+01  0.2053E+02
     13.943  0.2672E+01  0.2086E+02
     14.070  0.1978E+01  0.2111E+02
     14.196  0.1278E+01  0.2127E+02
     14.322  0.1199E+01  0.2142E+02
     14.448  0.1074E+01  0.2156E+02
     14.574  0.1042E+01  0.2169E+02
     14.700  0.1251E+01  0.2185E+02
     14.826  0.4775E+01  0.2245E+02
     14.952  0.3695E+01  0.2292E+02
     15.078  0.2733E+01  0.2326E+02
     15.204  0.3204E+01  0.2366E+02
     15.330  0.3580E+01  0.2412E+02
     15.456  0.1946E+01  0.2436E+02
     15.582  0.1673E+01  0.2457E+02
     15.709  0.1474E+01  0.2476E+02
     15.835  0.1579E+01  0.2496E+02
     15.961  0.1509E+01  0.2515E+02
     16.087  0.1547E+01  0.2534E+02
     16.213  0.1591E+01  0.2554E+02
     16.339  0.1371E+01  0.2572E+02
     16.465  0.9299E+00  0.2583E+02
     16.591  0.9781E+00  0.2596E+02
     16.717  0.8872E+00  0.2607E+02
     16.843  0.8637E+00  0.2618E+02
     16.969  0.9316E+00  0.2630E+02
     17.095  0.9028E+00  0.2641E+02
     17.221  0.1071E+01  0.2654E+02
     17.348  0.1630E+01  0.2675E+02
     17.474  0.1285E+01  0.2691E+02
     17.600  0.1691E+01  0.2712E+02
     17.726  0.1339E+01  0.2729E+02
     17.852  0.1780E+01  0.2752E+02
     17.978  0.1592E+01  0.2772E+02
     18.104  0.1536E+01  0.2791E+02
     18.230  0.9976E+00  0.2804E+02
     18.356  0.8788E+00  0.2815E+02
     18.482  0.1045E+01  0.2828E+02
     18.608  0.1790E+01  0.2851E+02
     18.734  0.2015E+01  0.2876E+02
     18.860  0.1490E+01  0.2895E+02
     18.987  0.2555E+01  0.2927E+02
     19.113  0.1543E+01  0.2946E+02
     19.239  0.2651E+01  0.2980E+02
     19.365  0.2227E+01  0.3008E+02
     19.491  0.2509E+01  0.3040E+02
     19.617  0.2035E+01  0.3065E+02
     19.743  0.1770E+01  0.3088E+02
     19.869  0.2501E+01  0.3119E+02
     19.995  0.2105E+01  0.3146E+02
     20.121  0.1922E+01  0.3170E+02
     20.247  0.2002E+01  0.3195E+02
     20.373  0.2866E+01  0.3231E+02
     20.499  0.2431E+01  0.3262E+02
     20.626  0.2020E+01  0.3287E+02
     20.752  0.1976E+01  0.3312E+02
     20.878  0.1353E+01  0.3329E+02
     21.004  0.1527E+01  0.3349E+02
     21.130  0.1514E+01  0.3368E+02
     21.256  0.1250E+01  0.3383E+02
     21.382  0.9982E+00  0.3396E+02
     21.508  0.1794E+01  0.3419E+02
     21.634  0.1490E+01  0.3437E+02
     21.760  0.2243E+01  0.3466E+02
     21.886  0.1813E+01  0.3489E+02
     22.012  0.2289E+01  0.3517E+02
     22.138  0.2628E+01  0.3551E+02
     22.265  0.2372E+01  0.3581E+02
     22.391  0.1786E+01  0.3603E+02
     22.517  0.1525E+01  0.3622E+02
     22.643  0.1711E+01  0.3644E+02
     22.769  0.2013E+01  0.3669E+02
     22.895  0.2076E+01  0.3695E+02
     23.021  0.1772E+01  0.3718E+02
     23.147  0.1849E+01  0.3741E+02
     23.273  0.1429E+01  0.3759E+02
     23.399  0.1170E+01  0.3774E+02
     23.525  0.1192E+01  0.3789E+02
     23.651  0.1003E+01  0.3801E+02
     23.777  0.5736E+00  0.3809E+02
     23.904  0.9128E+00  0.3820E+02
     24.030  0.7114E+00  0.3829E+02
     24.156  0.9334E+00  0.3841E+02
     24.282  0.7567E+00  0.3850E+02
     24.408  0.7524E+00  0.3860E+02
     24.534  0.9875E+00  0.3872E+02
     24.660  0.1617E+01  0.3893E+02
     24.786  0.3999E+00  0.3898E+02
     24.912  0.2691E+00  0.3901E+02
     25.038  0.5329E+00  0.3908E+02
     25.164  0.7398E+00  0.3917E+02
     25.290  0.2075E+01  0.3943E+02
     25.416  0.2092E+01  0.3970E+02
     25.543  0.1201E+01  0.3985E+02
     25.669  0.4591E+00  0.3991E+02
     25.795  0.5134E+00  0.3997E+02
     25.921  0.2185E+00  0.4000E+02
     26.047  0.8858E-03  0.4000E+02
     26.173  0.1744E-09  0.4000E+02
     26.299  0.0000E+00  0.4000E+02
     26.425  0.0000E+00  0.4000E+02
     26.551  0.0000E+00  0.4000E+02
     26.677  0.0000E+00  0.4000E+02
     26.803  0.0000E+00  0.4000E+02
     26.929  0.0000E+00  0.4000E+02
     27.055  0.0000E+00  0.4000E+02
     27.182  0.0000E+00  0.4000E+02
     27.308  0.0000E+00  0.4000E+02
     27.434  0.0000E+00  0.4000E+02
     27.560  0.0000E+00  0.4000E+02
     27.55980393    -10.26327350  301      3.29908981      1.00000000
    -10.263  0.0000E+00  0.0000E+00  0.0000E+00  0.0000E+00  0.0000E+00  0.0000E+00  0.0000E+00  0.0000E+00  0.0000E+00
    -10.137  0.0000E+00  0.0000E+00  0.0000E+00  0.0000E+00  0.0000E+00  0.0000E+00  0.0000E+00  0.0000E+00  0.0000E+00
    -10.011  0.0000E+00  0.0000E+00  0.0000E+00  0.0000E+00  0.0000E+00  0.0000E+00  0.0000E+00  0.0000E+00  0.0000E+00
     -9.885  0.0000E+00  0.0000E+00  0.0000E+00  0.0000E+00  0.0000E+00  0.0000E+00  0.0000E+00  0.0000E+00  0.0000E+00
     -9.759  0.0000E+00  0.0000E+00  0.0000E+00  0.0000E+00  0.0000E+00  0.0000E+00  0.0000E+00  0.0000E+00  0.0000E+00
     -9.633  0.0000E+00  0.0000E+00  0.0000E+00  0.0000E+00  0.0000E+00  0.0000E+00  0.0000E+00  0.0000E+00  0.0000E+00
     -9.507  0.0000E+00  0.0000E+00  0.0000E+00  0.0000E+00  0.0000E+00  0.0000E+00  0.0000E+00  0.0000E+00  0.0000E+00
     -9.381  0.0000E+00  0.0000E+00  0.0000E+00  0.0000E+00  0.0000E+00  0.0000E+00  0.0000E+00  0.0000E+00  0.0000E+00
     -9.255  0.0000E+00  0.0000E+00  0.0000E+00  0.0000E+00  0.0000E+00  0.0000E+00  0.0000E+00  0.0000E+00  0.0000E+00
     -9.129  0.0000E+00  0.0000E+00  0.0000E+00  0.0000E+00  0.0000E+00  0.0000E+00  0.0000E+00  0.0000E+00  0.0000E+00
     -9.003  0.0000E+00  0.0000E+00  0.0000E+00  0.0000E+00  0.0000E+00  0.0000E+00  0.0000E+00  0.0000E+00  0.0000E+00
     -8.876  0.0000E+00  0.0000E+00  0.0000E+00  0.0000E+00  0.0000E+00  0.0000E+00  0.0000E+00  0.0000E+00  0.0000E+00
     -8.750  0.3513E-09  0.1020E-12  0.2119E-13  0.4702E-13  0.2853E-14  0.6299E-14  0.5532E-18  0.1365E-13  0.8495E-18
     -8.624  0.2087E-02  0.1330E-05  0.2770E-06  0.6132E-06  0.3756E-07  0.8232E-07  0.1383E-10  0.1785E-06  0.2131E-10
     -8.498  0.3252E+00  0.8086E-03  0.1698E-03  0.3723E-03  0.2361E-04  0.5038E-04  0.2317E-07  0.1092E-03  0.3588E-07
     -8.372  0.3290E+00  0.4023E-02  0.8639E-03  0.1847E-02  0.1279E-03  0.2551E-03  0.2978E-06  0.5527E-03  0.4629E-06
     -8.246  0.1944E+00  0.6180E-02  0.1379E-02  0.2825E-02  0.2226E-03  0.4030E-03  0.8477E-06  0.8719E-03  0.1327E-05
     -8.120  0.1502E+00  0.7838E-02  0.1831E-02  0.3568E-02  0.3204E-03  0.5272E-03  0.1520E-05  0.1138E-02  0.2400E-05
     -7.994  0.1248E+00  0.9336E-02  0.2302E-02  0.4235E-02  0.4321E-03  0.6494E-03  0.2247E-05  0.1396E-02  0.3579E-05
     -7.868  0.1075E+00  0.1080E-01  0.2836E-02  0.4890E-02  0.5659E-03  0.7795E-03  0.2981E-05  0.1665E-02  0.4794E-05
     -7.742  0.9475E-01  0.1232E-01  0.3488E-02  0.5586E-02  0.7329E-03  0.9280E-03  0.3683E-05  0.1962E-02  0.5988E-05
     -7.616  0.8511E-01  0.1402E-01  0.4348E-02  0.6400E-02  0.9534E-03  0.1112E-02  0.4317E-05  0.2310E-02  0.7102E-05
     -7.490  0.7826E-01  0.1612E-01  0.5620E-02  0.7504E-02  0.1273E-02  0.1370E-02  0.4848E-05  0.2757E-02  0.8080E-05
     -7.364  0.7701E-01  0.1949E-01  0.8171E-02  0.9710E-02  0.1889E-02  0.1890E-02  0.5234E-05  0.3504E-02  0.8854E-05
     -7.237  0.1466E+00  0.3962E-01  0.2746E-01  0.2730E-01  0.6275E-02  0.5885E-02  0.6081E-05  0.8023E-02  0.9562E-05
     -7.111  0.1007E+00  0.3914E-01  0.2618E-01  0.1963E-01  0.5958E-02  0.4157E-02  0.8675E-05  0.7834E-02  0.1061E-04
     -6.985  0.5899E-01  0.4014E-01  0.2651E-01  0.1241E-01  0.5954E-02  0.2538E-02  0.9309E-05  0.7926E-02  0.1058E-04
     -6.859  0.4025E-01  0.5430E-01  0.4001E-01  0.1084E-01  0.8749E-02  0.2229E-02  0.8178E-05  0.1080E-01  0.9036E-05
     -6.733  0.1705E-01  0.3252E+00  0.1041E+00  0.6286E-02  0.2276E-01  0.1334E-02  0.3966E-05  0.6376E-01  0.4011E-05
     -6.607  0.5087E-03  0.8609E-01  0.3193E-01  0.1319E-03  0.7057E-02  0.2751E-04  0.1464E-06  0.1718E-01  0.1031E-06
     -6.481  0.1468E-07  0.6539E-05  0.3781E-05  0.2972E-08  0.8299E-06  0.6003E-09  0.4546E-11  0.1345E-05  0.2229E-11
     -6.355  0.6405E-17  0.5044E-14  0.3554E-14  0.1296E-17  0.7758E-15  0.2611E-18  0.2007E-20  0.1054E-14  0.9419E-21
     -6.229  0.0000E+00  0.0000E+00  0.0000E+00  0.0000E+00  0.0000E+00  0.0000E+00  0.0000E+00  0.0000E+00  0.0000E+00
     -6.103  0.0000E+00  0.0000E+00  0.0000E+00  0.0000E+00  0.0000E+00  0.0000E+00  0.0000E+00  0.0000E+00  0.0000E+00
     -5.977  0.0000E+00  0.0000E+00  0.0000E+00  0.0000E+00  0.0000E+00  0.0000E+00  0.0000E+00  0.0000E+00  0.0000E+00
     -5.851  0.0000E+00  0.0000E+00  0.0000E+00  0.0000E+00  0.0000E+00  0.0000E+00  0.0000E+00  0.0000E+00  0.0000E+00
     -5.725  0.0000E+00  0.0000E+00  0.0000E+00  0.0000E+00  0.0000E+00  0.0000E+00  0.0000E+00  0.0000E+00  0.0000E+00
     -5.598  0.0000E+00  0.0000E+00  0.0000E+00  0.0000E+00  0.0000E+00  0.0000E+00  0.0000E+00  0.0000E+00  0.0000E+00
     -5.472  0.0000E+00  0.0000E+00  0.0000E+00  0.0000E+00  0.0000E+00  0.0000E+00  0.0000E+00  0.0000E+00  0.0000E+00
     -5.346  0.0000E+00  0.0000E+00  0.0000E+00  0.0000E+00  0.0000E+00  0.0000E+00  0.0000E+00  0.0000E+00  0.0000E+00
     -5.220  0.0000E+00  0.0000E+00  0.0000E+00  0.0000E+00  0.0000E+00  0.0000E+00  0.0000E+00  0.0000E+00  0.0000E+00
     -5.094  0.0000E+00  0.0000E+00  0.0000E+00  0.0000E+00  0.0000E+00  0.0000E+00  0.0000E+00  0.0000E+00  0.0000E+00
     -4.968  0.0000E+00  0.0000E+00  0.0000E+00  0.0000E+00  0.0000E+00  0.0000E+00  0.0000E+00  0.0000E+00  0.0000E+00
     -4.842  0.0000E+00  0.0000E+00  0.0000E+00  0.0000E+00  0.0000E+00  0.0000E+00  0.0000E+00  0.0000E+00  0.0000E+00
     -4.716  0.0000E+00  0.0000E+00  0.0000E+00  0.0000E+00  0.0000E+00  0.0000E+00  0.0000E+00  0.0000E+00  0.0000E+00
     -4.590  0.0000E+00  0.0000E+00  0.0000E+00  0.0000E+00  0.0000E+00  0.0000E+00  0.0000E+00  0.0000E+00  0.0000E+00
     -4.464  0.0000E+00  0.0000E+00  0.0000E+00  0.0000E+00  0.0000E+00  0.0000E+00  0.0000E+00  0.0000E+00  0.0000E+00
     -4.338  0.0000E+00  0.0000E+00  0.0000E+00  0.0000E+00  0.0000E+00  0.0000E+00  0.0000E+00  0.0000E+00  0.0000E+00
     -4.212  0.0000E+00  0.0000E+00  0.0000E+00  0.0000E+00  0.0000E+00  0.0000E+00  0.0000E+00  0.0000E+00  0.0000E+00
     -4.086  0.0000E+00  0.0000E+00  0.0000E+00  0.0000E+00  0.0000E+00  0.0000E+00  0.0000E+00  0.0000E+00  0.0000E+00
     -3.959  0.0000E+00  0.0000E+00  0.0000E+00  0.0000E+00  0.0000E+00  0.0000E+00  0.0000E+00  0.0000E+00  0.0000E+00
     -3.833  0.0000E+00  0.0000E+00  0.0000E+00  0.0000E+00  0.0000E+00  0.0000E+00  0.0000E+00  0.0000E+00  0.0000E+00
     -3.707  0.0000E+00  0.0000E+00  0.0000E+00  0.0000E+00  0.0000E+00  0.0000E+00  0.0000E+00  0.0000E+00  0.0000E+00
     -3.581  0.0000E+00  0.0000E+00  0.0000E+00  0.0000E+00  0.0000E+00  0.0000E+00  0.0000E+00  0.0000E+00  0.0000E+00
     -3.455  0.0000E+00  0.0000E+00  0.0000E+00  0.0000E+00  0.0000E+00  0.0000E+00  0.0000E+00  0.0000E+00  0.0000E+00
     -3.329  0.0000E+00  0.0000E+00  0.0000E+00  0.0000E+00  0.0000E+00  0.0000E+00  0.0000E+00  0.0000E+00  0.0000E+00
     -3.203  0.0000E+00  0.0000E+00  0.0000E+00  0.0000E+00  0.0000E+00  0.0000E+00  0.0000E+00  0.0000E+00  0.0000E+00
     -3.077  0.0000E+00  0.0000E+00  0.0000E+00  0.0000E+00  0.0000E+00  0.0000E+00  0.0000E+00  0.0000E+00  0.0000E+00
     -2.951  0.0000E+00  0.0000E+00  0.0000E+00  0.0000E+00  0.0000E+00  0.0000E+00  0.0000E+00  0.0000E+00  0.0000E+00
     -2.825  0.0000E+00  0.0000E+00  0.0000E+00  0.0000E+00  0.0000E+00  0.0000E+00  0.0000E+00  0.0000E+00  0.0000E+00
     -2.699  0.4374E-07  0.1398E-11  0.6561E-15  0.1345E-11  0.6645E-18  0.2970E-13  0.1254E-09  0.6420E-12  0.3802E-09
     -2.573  0.2739E-01  0.2926E-05  0.8946E-06  0.2781E-05  0.9962E-09  0.4259E-07  0.7629E-04  0.9368E-06  0.2349E-03
     -2.447  0.1196E+01  0.1093E-01  0.1064E-01  0.1077E-01  0.2027E-04  0.1815E-04  0.2511E-02  0.1607E-03  0.8523E-02
     -2.320  0.2261E+01  0.5786E-01  0.5974E-01  0.5253E-01  0.5891E-03  0.2415E-03  0.1618E-02  0.1117E-02  0.5820E-02
     -2.194  0.9966E+00  0.2887E-01  0.3486E-01  0.1995E-01  0.9905E-03  0.5171E-03  0.8664E-03  0.1873E-02  0.1373E-02
     -2.068  0.2094E+00  0.6931E-02  0.1280E-01  0.5230E-02  0.3188E-03  0.6294E-03  0.2456E-03  0.1464E-02  0.5308E-03
     -1.942  0.1614E+00  0.6477E-02  0.1159E-01  0.4607E-02  0.3690E-03  0.7580E-03  0.1687E-03  0.1715E-02  0.4589E-03
     -1.816  0.1339E+00  0.6199E-02  0.1057E-01  0.4157E-02  0.3987E-03  0.8516E-03  0.1392E-03  0.1925E-02  0.4088E-03
     -1.690  0.1193E+00  0.6323E-02  0.9943E-02  0.4025E-02  0.4385E-03  0.9519E-03  0.1309E-03  0.2193E-02  0.3920E-03
     -1.564  0.1065E+00  0.6352E-02  0.9311E-02  0.3931E-02  0.4714E-03  0.1028E-02  0.1212E-03  0.2369E-02  0.3611E-03
     -1.438  0.9507E-01  0.6183E-02  0.8692E-02  0.3711E-02  0.4838E-03  0.1092E-02  0.1118E-03  0.2498E-02  0.3280E-03
     -1.312  0.8795E-01  0.6129E-02  0.8373E-02  0.3585E-02  0.5004E-03  0.1178E-02  0.1062E-03  0.2663E-02  0.3046E-03
     -1.186  0.8138E-01  0.6155E-02  0.7875E-02  0.3514E-02  0.5198E-03  0.1230E-02  0.1027E-03  0.2810E-02  0.2885E-03
     -1.060  0.7604E-01  0.6211E-02  0.7417E-02  0.3471E-02  0.5419E-03  0.1276E-02  0.1000E-03  0.2958E-02  0.2753E-03
     -0.934  0.7202E-01  0.6281E-02  0.7090E-02  0.3447E-02  0.5656E-03  0.1336E-02  0.9760E-04  0.3118E-02  0.2632E-03
     -0.808  0.6886E-01  0.6358E-02  0.6842E-02  0.3439E-02  0.5906E-03  0.1405E-02  0.9536E-04  0.3287E-02  0.2517E-03
     -0.681  0.6628E-01  0.6449E-02  0.6636E-02  0.3447E-02  0.6182E-03  0.1481E-02  0.9329E-04  0.3464E-02  0.2409E-03
     -0.555  0.6406E-01  0.6549E-02  0.6438E-02  0.3466E-02  0.6487E-03  0.1559E-02  0.9127E-04  0.3645E-02  0.2308E-03
     -0.429  0.6176E-01  0.6628E-02  0.6185E-02  0.3468E-02  0.6790E-03  0.1622E-02  0.8894E-04  0.3813E-02  0.2208E-03
     -0.303  0.5882E-01  0.6629E-02  0.5800E-02  0.3407E-02  0.7020E-03  0.1643E-02  0.8565E-04  0.3931E-02  0.2102E-03
     -0.177  0.5508E-01  0.6524E-02  0.5305E-02  0.3272E-02  0.7090E-03  0.1609E-02  0.8290E-04  0.3974E-02  0.1981E-03
     -0.051  0.5284E-01  0.3123E-01  0.2553E-01  0.2799E-01  0.1270E-02  0.1669E-02  0.2651E-02  0.4076E-02  0.1841E-03
      0.075  0.5385E-01  0.5756E-01  0.4738E-01  0.5524E-01  0.2170E-02  0.1889E-02  0.5257E-02  0.4292E-02  0.2147E-03
      0.201  0.6098E-01  0.7483E-01  0.7273E-01  0.1141E+00  0.2989E-02  0.3244E-02  0.7699E-02  0.5385E-02  0.2391E-02
      0.327  0.6112E-01  0.5531E-01  0.5359E-01  0.1714E+00  0.3056E-02  0.5946E-02  0.1093E-01  0.5450E-02  0.3631E-02
      0.453  0.5897E-01  0.1126E+00  0.1259E+00  0.2629E+00  0.3805E-02  0.9507E-02  0.1513E-01  0.5535E-02  0.5412E-02
      0.579  0.5751E-01  0.1617E+00  0.2358E+00  0.1709E+00  0.5814E-02  0.6808E-02  0.8098E-02  0.5601E-02  0.3146E-02
      0.705  0.5989E-01  0.8630E-01  0.1776E+00  0.1604E+00  0.6459E-02  0.7044E-02  0.6118E-02  0.5944E-02  0.2476E-02
      0.831  0.6017E-01  0.6401E-01  0.1816E+00  0.1713E+00  0.7552E-02  0.7948E-02  0.4754E-02  0.6407E-02  0.1993E-02
      0.958  0.5428E-01  0.4864E-01  0.2962E+00  0.2852E+00  0.1242E-01  0.1208E-01  0.3490E-02  0.6260E-02  0.1480E-02
      1.084  0.4757E-01  0.3665E-01  0.2878E+00  0.2859E+00  0.1375E-01  0.1281E-01  0.2333E-02  0.5816E-02  0.9417E-03
      1.210  0.5055E-01  0.3526E-01  0.1165E+00  0.1194E+00  0.9045E-02  0.8454E-02  0.2155E-02  0.6207E-02  0.8981E-03
      1.336  0.5269E-01  0.4029E-01  0.9372E-01  0.1031E+00  0.9137E-02  0.9211E-02  0.2049E-02  0.6955E-02  0.1123E-02
      1.462  0.4793E-01  0.6013E-01  0.8203E-01  0.1127E+00  0.9486E-02  0.1038E-01  0.1978E-02  0.8093E-02  0.2056E-02
      1.588  0.4380E-01  0.5784E-01  0.7458E-01  0.1043E+00  0.9899E-02  0.1062E-01  0.1914E-02  0.8268E-02  0.2321E-02
      1.714  0.4807E-01  0.5632E-01  0.7035E-01  0.9903E-01  0.1054E-01  0.1196E-01  0.1873E-02  0.9279E-02  0.2543E-02
      1.840  0.4827E-01  0.5567E-01  0.6788E-01  0.9640E-01  0.1157E-01  0.1318E-01  0.1871E-02  0.9802E-02  0.2802E-02
      1.966  0.4157E-01  0.5487E-01  0.6624E-01  0.9572E-01  0.1283E-01  0.1409E-01  0.1875E-02  0.9541E-02  0.3116E-02
      2.092  0.4155E-01  0.5710E-01  0.6753E-01  0.9994E-01  0.1445E-01  0.1638E-01  0.1989E-02  0.1048E-01  0.3605E-02
      2.218  0.4486E-01  0.6820E-01  0.7721E-01  0.1197E+00  0.1747E-01  0.2150E-01  0.2538E-02  0.1354E-01  0.4828E-02
      2.344  0.4087E-01  0.1750E+00  0.1831E+00  0.2353E+00  0.3726E-01  0.4259E-01  0.8417E-02  0.3276E-01  0.1151E-01
      2.470  0.3674E-01  0.1096E+00  0.1171E+00  0.1327E+00  0.3021E-01  0.2931E-01  0.4458E-02  0.2491E-01  0.6425E-02
      2.597  0.4126E-01  0.7845E-01  0.8532E-01  0.9967E-01  0.2820E-01  0.2760E-01  0.2528E-02  0.2240E-01  0.4536E-02
      2.723  0.4338E-01  0.6787E-01  0.7523E-01  0.8878E-01  0.3030E-01  0.2951E-01  0.1802E-02  0.2285E-01  0.3864E-02
      2.849  0.4157E-01  0.6159E-01  0.6972E-01  0.8222E-01  0.3353E-01  0.3244E-01  0.1339E-02  0.2419E-01  0.3433E-02
      2.975  0.4638E-01  0.5893E-01  0.6808E-01  0.7955E-01  0.3901E-01  0.3790E-01  0.9912E-03  0.2772E-01  0.3072E-02
      3.101  0.9802E-01  0.5967E-01  0.7161E-01  0.8226E-01  0.4913E-01  0.4864E-01  0.6972E-03  0.3441E-01  0.2667E-02
      3.227  0.3428E-01  0.7919E-01  0.1008E+00  0.1113E+00  0.8520E-01  0.8752E-01  0.3991E-03  0.6121E-01  0.1930E-02
      3.353  0.1134E-01  0.7092E-01  0.7779E-01  0.8585E-01  0.7312E-01  0.7949E-01  0.6186E-04  0.6583E-01  0.3521E-03
      3.479  0.2277E-01  0.8947E-02  0.2312E-02  0.4465E-02  0.2098E-02  0.4221E-02  0.1715E-05  0.8502E-02  0.2862E-05
      3.605  0.2835E-01  0.7863E-02  0.1927E-02  0.3814E-02  0.1559E-02  0.3502E-02  0.3775E-05  0.7329E-02  0.5443E-05
      3.731  0.3288E-01  0.8039E-02  0.2107E-02  0.3801E-02  0.1437E-02  0.3349E-02  0.7996E-05  0.7300E-02  0.1162E-04
      3.857  0.3573E-01  0.8076E-02  0.2494E-02  0.3833E-02  0.1379E-02  0.3179E-02  0.1411E-04  0.7063E-02  0.2122E-04
      3.983  0.3772E-01  0.7907E-02  0.3141E-02  0.4032E-02  0.1390E-02  0.3056E-02  0.2090E-04  0.6525E-02  0.3136E-04
      4.109  0.3937E-01  0.7744E-02  0.3993E-02  0.4377E-02  0.1378E-02  0.2935E-02  0.2748E-04  0.5884E-02  0.3929E-04
      4.236  0.9131E-01  0.1403E-01  0.1107E-01  0.1081E-01  0.2805E-02  0.4267E-02  0.3575E-04  0.7005E-02  0.4872E-04
      4.362  0.3457E+00  0.4789E-01  0.4541E-01  0.4343E-01  0.9966E-02  0.1121E-01  0.6377E-04  0.1423E-01  0.7470E-04
      4.488  0.2421E+00  0.4214E-01  0.4022E-01  0.3616E-01  0.5613E-02  0.6610E-02  0.9825E-04  0.9978E-02  0.1185E-03
      4.614  0.2512E+00  0.5112E-01  0.5030E-01  0.4428E-01  0.4275E-02  0.5096E-02  0.1276E-03  0.8565E-02  0.1717E-03
      4.740  0.6234E-01  0.1288E-01  0.1345E-01  0.5278E-02  0.1394E-02  0.2028E-02  0.1550E-03  0.5483E-02  0.2324E-03
      4.866  0.5414E-01  0.1578E+00  0.1303E-01  0.2726E-02  0.1346E-02  0.1669E-02  0.2854E-03  0.5615E-01  0.6246E-03
      4.992  0.6527E-01  0.2339E+00  0.1596E-01  0.2298E-02  0.1600E-02  0.1468E-02  0.7295E-03  0.7891E-01  0.1974E-02
      5.118  0.6836E-01  0.1302E+00  0.1895E-01  0.1985E-02  0.1915E-02  0.1315E-02  0.7371E-03  0.4111E-01  0.2023E-02
      5.244  0.6884E-01  0.1037E+00  0.2148E-01  0.1670E-02  0.2142E-02  0.1128E-02  0.7003E-03  0.3148E-01  0.1962E-02
      5.370  0.1474E+00  0.9072E-01  0.2586E-01  0.1521E-02  0.3010E-02  0.9892E-03  0.9925E-02  0.2681E-01  0.2849E-01
      5.496  0.2690E+00  0.8498E-01  0.5362E-01  0.2505E-02  0.1124E-01  0.1070E-02  0.2787E-01  0.2496E-01  0.6478E-01
      5.622  0.1964E+00  0.8040E-01  0.6296E-01  0.3257E-02  0.1272E-01  0.1049E-02  0.1947E-01  0.2348E-01  0.3671E-01
      5.748  0.1943E+00  0.7566E-01  0.7269E-01  0.3661E-02  0.1339E-01  0.1047E-02  0.1729E-01  0.2285E-01  0.3059E-01
      5.875  0.2314E+00  0.5928E-01  0.1127E+00  0.4015E-02  0.1862E-01  0.1187E-02  0.1879E-01  0.2155E-01  0.2825E-01
      6.001  0.1520E+00  0.1105E+00  0.5813E-01  0.3766E-02  0.9884E-02  0.8128E-03  0.1249E-01  0.1583E-01  0.2758E-01
      6.127  0.1192E+00  0.1152E+00  0.1020E-01  0.3742E-02  0.2837E-02  0.5132E-03  0.8898E-02  0.1555E-01  0.3008E-01
      6.253  0.5673E-01  0.6998E-01  0.1025E-01  0.3934E-02  0.3069E-02  0.4873E-03  0.2641E-02  0.1498E-01  0.1170E-01
      6.379  0.5481E-01  0.6736E-01  0.1020E-01  0.4070E-02  0.3335E-02  0.4569E-03  0.2293E-02  0.1475E-01  0.1103E-01
      6.505  0.5455E-01  0.6792E-01  0.1006E-01  0.4140E-02  0.3681E-02  0.4232E-03  0.2116E-02  0.1494E-01  0.1089E-01
      6.631  0.5452E-01  0.6811E-01  0.9662E-02  0.4133E-02  0.4048E-02  0.3884E-03  0.1967E-02  0.1482E-01  0.1085E-01
      6.757  0.5490E-01  0.7077E-01  0.9195E-02  0.4044E-02  0.4568E-02  0.3538E-03  0.1840E-02  0.1535E-01  0.1089E-01
      6.883  0.5553E-01  0.7436E-01  0.8374E-02  0.3875E-02  0.5109E-02  0.3214E-03  0.1722E-02  0.1551E-01  0.1101E-01
      7.009  0.5650E-01  0.8281E-01  0.7450E-02  0.3642E-02  0.5851E-02  0.2928E-03  0.1600E-02  0.1646E-01  0.1117E-01
      7.135  0.6650E-01  0.1562E+00  0.1585E-01  0.5346E-01  0.1116E-01  0.2195E-02  0.1503E-02  0.1921E-01  0.1140E-01
      7.261  0.9337E-01  0.6721E+00  0.4794E+00  0.6375E+00  0.3438E-01  0.1918E-01  0.1554E-02  0.3570E-01  0.1192E-01
      7.387  0.9416E-01  0.3551E+00  0.4271E+00  0.4027E+00  0.5425E-01  0.1699E-01  0.1940E-01  0.5503E-01  0.2027E-01
      7.514  0.1369E+00  0.2465E+00  0.2968E+00  0.2514E+00  0.5765E-01  0.1475E-01  0.2420E-01  0.5954E-01  0.2596E-01
      7.640  0.5346E-01  0.2009E+00  0.2504E+00  0.2029E+00  0.7402E-01  0.1458E-01  0.1769E-01  0.6972E-01  0.1019E-01
      7.766  0.3109E-01  0.1690E+00  0.2180E+00  0.1804E+00  0.4109E-01  0.1504E-01  0.1511E-01  0.3413E-01  0.7802E-02
      7.892  0.1453E-01  0.1745E+00  0.2203E+00  0.1786E+00  0.2622E-01  0.1691E-01  0.1945E-01  0.2061E-01  0.1049E-01
      8.018  0.1593E-01  0.4508E+00  0.4961E+00  0.4824E+00  0.6488E-01  0.6047E-01  0.1033E+00  0.5842E-01  0.1011E+00
      8.144  0.1621E-01  0.1449E+00  0.1897E+00  0.2243E+00  0.2817E-01  0.3154E-01  0.2906E-01  0.2132E-01  0.3797E-01
      8.270  0.2440E-01  0.8136E-01  0.1281E+00  0.1142E+00  0.2709E-01  0.1807E-01  0.1432E-01  0.1363E-01  0.9998E-02
      8.396  0.7022E-01  0.1729E+00  0.2608E+00  0.1176E+00  0.5696E-01  0.1781E-01  0.3900E-01  0.2378E-01  0.8982E-02
      8.522  0.4115E-01  0.8571E-01  0.1864E+00  0.1018E+00  0.4009E-01  0.1671E-01  0.2680E-01  0.1455E-01  0.7487E-02
      8.648  0.1740E-01  0.5730E-01  0.8415E-01  0.8094E-01  0.2264E-01  0.1525E-01  0.3365E-02  0.1278E-01  0.6304E-02
      8.774  0.1728E-01  0.5044E-01  0.7553E-01  0.7621E-01  0.2232E-01  0.1508E-01  0.2564E-02  0.1289E-01  0.5401E-02
      8.900  0.1811E-01  0.4780E-01  0.7187E-01  0.7515E-01  0.2249E-01  0.1522E-01  0.2426E-02  0.1361E-01  0.4691E-02
      9.026  0.2264E-01  0.4998E-01  0.7514E-01  0.8059E-01  0.2493E-01  0.1570E-01  0.2747E-02  0.1575E-01  0.4274E-02
      9.153  0.2045E-01  0.4468E-01  0.7088E-01  0.7372E-01  0.2416E-01  0.1474E-01  0.2116E-02  0.1476E-01  0.2690E-02
      9.279  0.4614E-02  0.2468E-01  0.5101E-01  0.4387E-01  0.1698E-01  0.1216E-01  0.4710E-03  0.7887E-02  0.6041E-03
      9.405  0.4647E-02  0.2404E-01  0.5073E-01  0.1414E+00  0.1718E-01  0.2066E-01  0.4170E-01  0.8359E-02  0.1319E-01