    2    2    1    1
  0.2779610E+02  0.4283936E-09  0.4283936E-09  0.4283936E-09  0.5000000E-15
  1.000000000000000E-004
  CAR 
 unknown system                          
      8    250     20
 
  0.0000000E+00  0.0000000E+00  0.0000000E+00  0.4000000E-02
    1       -8.544043   1.000000
    2        3.092789   1.000000
    3        3.262019   0.852803
    4        3.262019   0.852803
    5        3.262019   0.852800
    6        7.210930   0.000000
    7        7.210930   0.000000
    8        7.210930   0.000000
    9       10.787575   0.000000
   10       12.778071   0.000000
   11       12.778071   0.000000
   12       13.643035   0.000000
   13       13.643035   0.000000
   14       13.643035   0.000000
   15       16.202652   0.000000
   16       24.625485   0.000000
   17       24.625768   0.000000
   18       24.625839   0.000000
   19       25.758621   0.000000
   20       25.787671   0.000000
 
  0.1020408E-01  0.0000000E+00  0.1020408E-01  0.4000000E-02
    1       -8.542809   1.000000
    2        3.001675   1.000000
    3        3.257711   0.879075
    4        3.257711   0.879073
    5        3.353129   0.063200
    6        7.204697   0.000000
    7        7.216764   0.000000
    8        7.216764   0.000000
    9       10.797107   0.000000
   10       12.737888   0.000000
   11       12.779187   0.000000
   12       13.646214   0.000000
   13       13.646214   0.000000
   14       13.676583   0.000000
   15       16.216950   0.000000
   16       24.580734   0.000000
   17       24.581339   0.000000
   18       24.623221   0.000000
   19       25.586776   0.000000
   20       25.726897   0.000000
 
  0.2040816E-01  0.0000000E+00  0.2040816E-01  0.4000000E-02
    1       -8.539090   1.000000
    2        2.858074   1.000000
    3        3.244881   0.937395
    4        3.244881   0.937393
    5        3.496710   0.000000
    6        7.186209   0.000000
    7        7.234175   0.000000
    8        7.234175   0.000000
    9       10.825455   0.000000
   10       12.632848   0.000000
   11       12.782533   0.000000
   12       13.655747   0.000000
   13       13.655747   0.000000
   14       13.761789   0.000000
   15       16.259812   0.000000
   16       24.459742   0.000000
   17       24.460024   0.000000
   18       24.615336   0.000000
   19       25.274370   0.000000
   20       25.610776   0.000000
 
  0.3061224E-01  0.0000000E+00  0.3061224E-01  0.4000000E-02
    1       -8.532889   1.000000
    2        2.708110   1.000000
    3        3.223787   0.983410
    4        3.223787   0.983409
    5        3.646583   0.000000
    6        7.156085   0.000000
    7        7.262903   0.000000
    8        7.262903   0.000000
    9       10.871900   0.000000
   10       12.489546   0.000000
   11       12.788111   0.000000
   12       13.671634   0.000000
   13       13.671634   0.000000
   14       13.872366   0.000000
   15       16.331077   0.000000
   16       24.288230   0.000000
   17       24.288543   0.000000
   18       24.599922   0.000000
   19       25.017947   0.000000
   20       25.508375   0.000000
 
  0.4081633E-01  0.0000000E+00  0.4081633E-01  0.4000000E-02
    1       -8.524213   1.000000
    2        2.556616   1.000000
    3        3.194839   0.998404
    4        3.194839   0.998404
    5        3.797817   0.000000
    6        7.115274   0.000000
    7        7.302543   0.000000
    8        7.302543   0.000000
    9       10.935279   0.000000
   10       12.326372   0.000000
   11       12.795918   0.000000
   12       13.693870   0.000000
   13       13.693870   0.000000
   14       13.990650   0.000000
   15       16.430304   0.000000
   16       24.086818   0.000000
   17       24.086883   0.000000
   18       24.572734   0.000000
   19       24.763761   0.000000
   20       25.358080   0.000000
 
  0.5102041E-01  0.0000000E+00  0.5102041E-01  0.4000000E-02
    1       -8.513074   1.000000
    2        2.404737   1.000000
    3        3.158561   0.999965
    4        3.158562   0.999965
    5        3.949133   0.000000
    6        7.064946   0.000000
    7        7.352559   0.000000
    8        7.352559   0.000000
    9       11.013966   0.000000
   10       12.153802   0.000000
   11       12.805952   0.000000
   12       13.722449   0.000000
   13       13.722449   0.000000
   14       14.107605   0.000000
   15       16.556601   0.000000
   16       23.868217   0.000000
   17       23.868230   0.000000
   18       24.513346   0.000000
   19       24.527549   0.000000
   20       25.255265   0.000000
 
  0.6122449E-01  0.0000000E+00  0.6122449E-01  0.4000000E-02
    1       -8.499482   1.000000
    2        2.252920   1.000000
    3        3.115586   1.000000
    4        3.115587   1.000000
    5        4.099911   0.000000
    6        7.006394   0.000000
    7        7.412331   0.000000
    8        7.412331   0.000000
    9       11.105625   0.000000
   10       11.978522   0.000000
   11       12.818214   0.000000
   12       13.757367   0.000000
   13       13.757367   0.000000
   14       14.219145   0.000000
   15       16.708538   0.000000
   16       23.639528   0.000000
   17       23.639725   0.000000
   18       24.265544   0.000000
   19       24.456762   0.000000
   20       25.157053   0.000000
 
  0.7142857E-01  0.0000000E+00  0.7142857E-01  0.4000000E-02
    1       -8.483461   1.000000
    2        2.101372   1.000000
    3        3.066581   1.000000
    4        3.066581   1.000000
    5        4.249707   0.000000
    6        6.940934   0.000000
    7        7.481173   0.000000
    8        7.481173   0.000000
    9       11.205887   0.000000
   10       11.807048   0.000000
   11       12.832700   0.000000
   12       13.798611   0.000000
   13       13.798611   0.000000
   14       14.323898   0.000000
   15       16.884186   0.000000
   16       23.404814   0.000000
   17       23.404830   0.000000
   18       24.019857   0.000000
   19       24.354247   0.000000
   20       25.082407   0.000000
 
  0.8163265E-01  0.0000000E+00  0.8163265E-01  0.4000000E-02
    1       -8.465017   1.000000
    2        1.950237   1.000000
    3        3.012261   1.000000
    4        3.012261   1.000000
    5        4.398113   0.000000
    6        6.869845   0.000000
    7        7.558381   0.000000
    8        7.558381   0.000000
    9       11.300565   0.000000
   10       11.654639   0.000000
   11       12.849408   0.000000
   12       13.846173   0.000000
   13       13.846173   0.000000
   14       14.421992   0.000000
   15       17.081271   0.000000
   16       23.166537   0.000000
   17       23.166542   0.000000
   18       23.777102   0.000000
   19       24.221520   0.000000
   20       25.040166   0.000000
 
  0.9183673E-01  0.0000000E+00  0.9183673E-01  0.4000000E-02
    1       -8.444179   1.000000
    2        1.799613   1.000000
    3        2.953328   1.000000
    4        2.953329   1.000000
    5        4.544701   0.000000
    6        6.794315   0.000000
    7        7.643246   0.000000
    8        7.643246   0.000000
    9       11.320077   0.000000
   10       11.591426   0.000000
   11       12.868335   0.000000
   12       13.900039   0.000000
   13       13.900039   0.000000
   14       14.514345   0.000000
   15       17.297376   0.000000
   16       22.926226   0.000000
   17       22.926230   0.000000
   18       23.537090   0.000000
   19       24.064806   0.000000
   20       25.018006   0.000000
 
  0.1020408E+00  0.0000000E+00  0.1020408E+00  0.4000000E-02
    1       -8.420968   1.000000
    2        1.649562   1.000000
    3        2.890471   1.000000
    4        2.890471   1.000000
    5        4.689000   0.000000
    6        6.715416   0.000000
    7        7.735073   0.000000
    8        7.735073   0.000000
    9       11.207009   0.000000
   10       11.675135   0.000000
   11       12.889476   0.000000
   12       13.960191   0.000000
   13       13.960191   0.000000
   14       14.602235   0.000000
   15       17.530126   0.000000
   16       22.684868   0.000000
   17       22.684871   0.000000
   18       23.299864   0.000000
   19       23.890615   0.000000
   20       25.023410   0.000000
 
  0.1122449E+00  0.0000000E+00  0.1122449E+00  0.4000000E-02
    1       -8.395415   1.000000
    2        1.500152   1.000000
    3        2.824336   1.000000
    4        2.824336   1.000000
    5        4.830463   0.000000
    6        6.634110   0.000000
    7        7.833206   0.000000
    8        7.833206   0.000000
    9       11.056560   0.000000
   10       11.810782   0.000000
   11       12.912826   0.000000
   12       14.026607   0.000000
   13       14.026607   0.000000
   14       14.687017   0.000000
   15       17.777317   0.000000
   16       22.443155   0.000000
   17       22.443156   0.000000
   18       23.065453   0.000000
   19       23.704060   0.000000
   20       25.014672   0.000000
 
  0.1224490E+00  0.0000000E+00  0.1224490E+00  0.4000000E-02
    1       -8.367554   1.000000
    2        1.351428   1.000000
    3        2.755536   1.000000
    4        2.755537   1.000000
    5        4.968472   0.000000
    6        6.551238   0.000000
    7        7.937028   0.000000
    8        7.937028   0.000000
    9       10.903510   0.000000
   10       11.963808   0.000000
   11       12.938380   0.000000
   12       14.099264   0.000000
   13       14.099264   0.000000
   14       14.769987   0.000000
   15       18.036972   0.000000
   16       22.201568   0.000000
   17       22.201568   0.000000
   18       22.833914   0.000000
   19       23.508701   0.000000
   20       25.029582   0.000000
 
  0.1326531E+00  0.0000000E+00  0.1326531E+00  0.4000000E-02
    1       -8.337416   1.000000
    2        1.203445   1.000000
    3        2.684650   1.000000
    4        2.684650   1.000000
    5        5.102318   0.000000
    6        6.467542   0.000000
    7        8.045980   0.000000
    8        8.045980   0.000000
    9       10.755305   0.000000
   10       12.127040   0.000000
   11       12.966131   0.000000
   12       14.178136   0.000000
   13       14.178136   0.000000
   14       14.852317   0.000000
   15       18.307356   0.000000
   16       21.960472   0.000000
   17       21.960472   0.000000
   18       22.605302   0.000000
   19       23.306990   0.000000
   20       25.050194   0.000000
 
  0.1428571E+00  0.0000000E+00  0.1428571E+00  0.4000000E-02
    1       -8.305042   1.000000
    2        1.056249   1.000000
    3        2.612190   1.000000
    4        2.612190   1.000000
    5        5.231185   0.000000
    6        6.383674   0.000000
    7        8.159540   0.000000
    8        8.159540   0.000000
    9       10.614867   0.000000
   10       12.297897   0.000000
   11       12.996071   0.000000
   12       14.263189   0.000000
   13       14.263189   0.000000
   14       14.935028   0.000000
   15       18.586950   0.000000
   16       21.720140   0.000000
   17       21.720141   0.000000
   18       22.379657   0.000000
   19       23.100753   0.000000
   20       25.069766   0.000000
 
  0.1530612E+00  0.0000000E+00  0.1530612E+00  0.4000000E-02
    1       -8.270475   1.000000
    2        0.909895   1.000000
    3        2.538629   1.000000
    4        2.538630   1.000000
    5        5.354135   0.000000
    6        6.300225   0.000000
    7        8.277238   0.000000
    8        8.277238   0.000000
    9       10.484037   0.000000
   10       12.474960   0.000000
   11       13.028189   0.000000
   12       14.354387   0.000000
   13       14.354387   0.000000
   14       15.019003   0.000000
   15       18.874391   0.000000
   16       21.480788   0.000000
   17       21.480789   0.000000
   18       22.157023   0.000000
   19       22.891420   0.000000
   20       25.098068   0.000000
 
  0.1632653E+00  0.0000000E+00  0.1632653E+00  0.4000000E-02
    1       -8.233767   1.000000
    2        0.764434   1.000000
    3        2.464396   1.000000
    4        2.464396   1.000000
    5        5.470081   0.000000
    6        6.217763   0.000000
    7        8.398652   0.000000
    8        8.398652   0.000000
    9       10.364324   0.000000
   10       12.657213   0.000000
   11       13.062475   0.000000
   12       14.451686   0.000000
   13       14.451686   0.000000
   14       15.105008   0.000000
   15       19.168404   0.000000
   16       21.242591   0.000000
   17       21.242592   0.000000
   18       21.937444   0.000000
   19       22.680285   0.000000
   20       25.131519   0.000000
 
  0.1734694E+00  0.0000000E+00  0.1734694E+00  0.4000000E-02
    1       -8.194969   1.000000
    2        0.619936   1.000000
    3        2.389876   1.000000
    4        2.389876   1.000000
    5        5.577723   0.000000
    6        6.136932   0.000000
    7        8.523398   0.000000
    8        8.523398   0.000000
    9       10.257124   0.000000
   10       12.843810   0.000000
   11       13.098913   0.000000
   12       14.555039   0.000000
   13       14.555039   0.000000
   14       15.193712   0.000000
   15       19.467685   0.000000
   16       21.005694   0.000000
   17       21.005694   0.000000
   18       21.720963   0.000000
   19       22.468604   0.000000
   20       25.165472   0.000000
 
  0.1836735E+00  0.0000000E+00  0.1836735E+00  0.4000000E-02
    1       -8.154156   1.000000
    2        0.476458   1.000000
    3        2.315414   1.000000
    4        2.315414   1.000000
    5        5.675286   0.000000
    6        6.058735   0.000000
    7        8.651138   0.000000
    8        8.651138   0.000000
    9       10.163779   0.000000
   10       13.033983   0.000000
   11       13.137490   0.000000
   12       14.664392   0.000000
   13       14.664392   0.000000
   14       15.285727   0.000000
   15       19.770707   0.000000
   16       20.770227   0.000000
   17       20.770227   0.000000
   18       21.507627   0.000000
   19       22.257898   0.000000
   20       25.205010   0.000000
 
  0.1938776E+00  0.0000000E+00  0.1938776E+00  0.4000000E-02
    1       -8.111390   1.000000
    2        0.334062   1.000000
    3        2.241324   1.000000
    4        2.241324   1.000000
    5        5.759198   0.000000
    6        5.985876   0.000000
    7        8.781561   0.000000
    8        8.781561   0.000000
    9       10.085565   0.000000
   10       13.178184   0.000000
   11       13.226974   0.000000
   12       14.779682   0.000000
   13       14.779682   0.000000
   14       15.381603   0.000000
   15       20.075241   0.000000
   16       20.536309   0.000000
   17       20.536309   0.000000
   18       21.297480   0.000000
   19       22.050367   0.000000
   20       25.249310   0.000000
 
  0.2040816E+00  0.0000000E+00  0.2040816E+00  0.4000000E-02
    1       -8.066738   1.000000
    2        0.192832   1.000000
    3        2.167888   1.000000
    4        2.167889   1.000000
    5        5.814388   0.000000
    6        5.932614   0.000000
    7        8.914387   0.000000
    8        8.914387   0.000000
    9       10.023661   0.000000
   10       13.220976   0.000000
   11       13.422009   0.000000
   12       14.900838   0.000000
   13       14.900838   0.000000
   14       15.481878   0.000000
   15       20.304045   0.000000
   16       20.304047   0.000000
   17       20.377033   0.000000
   18       21.090567   0.000000
   19       21.850261   0.000000
   20       25.303056   0.000000
 
  0.2142857E+00  0.0000000E+00  0.2142857E+00  0.4000000E-02
    1       -8.020285   1.000000
    2        0.052846   1.000000
    3        2.095358   1.000000
    4        2.095358   1.000000
    5        5.794712   0.000000
    6        5.944367   0.000000
    7        9.049375   0.000000
    8        9.049375   0.000000
    9        9.979069   0.000000
   10       13.265839   0.000000
   11       13.618283   0.000000
   12       15.027783   0.000000
   13       15.027783   0.000000
   14       15.587075   0.000000
   15       20.073545   0.000000
   16       20.073551   0.000000
   17       20.664843   0.000000
   18       20.886941   0.000000
   19       21.668812   0.000000
   20       25.352202   0.000000
 
  0.2244898E+00  0.0000000E+00  0.2244898E+00  0.4000000E-02
    1       -7.972118   1.000000
    2       -0.085786   1.000000
    3        2.023964   1.000000
    4        2.023964   1.000000
    5        5.733727   0.000000
    6        5.987055   0.000000
    7        9.186306   0.000000
    8        9.186306   0.000000
    9        9.952534   0.000000
   10       13.312742   0.000000
   11       13.814920   0.000000
   12       15.160434   0.000000
   13       15.160434   0.000000
   14       15.697724   0.000000
   15       19.844913   0.000000
   16       19.844917   0.000000
   17       20.686656   0.000000
   18       20.897530   0.000000
   19       21.547148   0.000000
   20       25.401080   0.000000
 
  0.2346939E+00  0.0000000E+00  0.2346939E+00  0.4000000E-02
    1       -7.922341   1.000000
    2       -0.222970   1.000000
    3        1.953908   1.000000
    4        1.953909   1.000000
    5        5.667406   0.000000
    6        6.024459   0.000000
    7        9.324975   0.000000
    8        9.324975   0.000000
    9        9.944459   0.000000
   10       13.361651   0.000000
   11       14.010954   0.000000
   12       15.298690   0.000000
   13       15.298690   0.000000
   14       15.814363   0.000000
   15       19.618268   0.000000
   16       19.618271   0.000000
   17       20.489770   0.000000
   18       20.958189   0.000000
   19       21.602140   0.000000
   20       25.462988   0.000000
 
  0.2448980E+00  0.0000000E+00  0.2448980E+00  0.4000000E-02
    1       -7.871069   1.000000
    2       -0.358585   1.000000
    3        1.885378   1.000000
    4        1.885378   1.000000
    5        5.601616   0.000000
    6        6.050814   0.000000
    7        9.465198   0.000000
    8        9.465198   0.000000
    9        9.954845   0.000000
   10       13.412522   0.000000
   11       14.205314   0.000000
   12       15.442439   0.000000
   13       15.442439   0.000000
   14       15.937548   0.000000
   15       19.393735   0.000000
   16       19.393737   0.000000
   17       20.296345   0.000000
   18       20.844938   0.000000
   19       21.835609   0.000000
   20       25.526420   0.000000
 
  0.2551020E+00  0.0000000E+00  0.2551020E+00  0.4000000E-02
    1       -7.818419   1.000000
    2       -0.492500   1.000000
    3        1.818540   1.000000
    4        1.818540   1.000000
    5        5.537716   0.000000
    6        6.065252   0.000000
    7        9.606805   0.000000
    8        9.606805   0.000000
    9        9.983271   0.000000
   10       13.465308   0.000000
   11       14.396812   0.000000
   12       15.591548   0.000000
   13       15.591548   0.000000
   14       16.067829   0.000000
   15       19.171450   0.000000
   16       19.171451   0.000000
   17       20.106450   0.000000
   18       20.676300   0.000000
   19       22.128912   0.000000
   20       25.604496   0.000000
 
  0.2653061E+00  0.0000000E+00  0.2653061E+00  0.4000000E-02
    1       -7.764531   1.000000
    2       -0.624565   1.000000
    3        1.753547   1.000000
    4        1.753547   1.000000
    5        5.476211   0.000000
    6        6.068113   0.000000
    7        9.749631   0.000000
    8        9.749631   0.000000
    9       10.028916   0.000000
   10       13.519951   0.000000
   11       14.584136   0.000000
   12       15.745857   0.000000
   13       15.745857   0.000000
   14       16.205734   0.000000
   15       18.951593   0.000000
   16       18.951594   0.000000
   17       19.920160   0.000000
   18       20.495046   0.000000
   19       22.439079   0.000000
   20       25.688474   0.000000
 
  0.2755102E+00  0.0000000E+00  0.2755102E+00  0.4000000E-02
    1       -7.709552   1.000000
    2       -0.754634   1.000000
    3        1.690533   1.000000
    4        1.690533   1.000000
    5        5.417351   0.000000
    6        6.060286   0.000000
    7        9.893518   0.000000
    8        9.893518   0.000000
    9       10.090617   0.000000
   10       13.576384   0.000000
   11       14.765861   0.000000
   12       15.905159   0.000000
   13       15.905159   0.000000
   14       16.351711   0.000000
   15       18.734374   0.000000
   16       18.734375   0.000000
   17       19.737559   0.000000
   18       20.313198   0.000000
   19       22.753772   0.000000
   20       25.790750   0.000000
 
  0.2857143E+00  0.0000000E+00  0.2857143E+00  0.4000000E-02
    1       -7.653642   1.000000
    2       -0.882501   1.000000
    3        1.629624   1.000000
    4        1.629624   1.000000
    5        5.361282   0.000000
    6        6.042980   0.000000
    7       10.038307   0.000000
    8       10.038307   0.000000
    9       10.166975   0.000000
   10       13.634527   0.000000
   11       14.940457   0.000000
   12       16.069169   0.000000
   13       16.069169   0.000000
   14       16.506069   0.000000
   15       18.520108   0.000000
   16       18.520109   0.000000
   17       19.558746   0.000000
   18       20.135809   0.000000
   19       23.067487   0.000000
   20       25.840573   0.000000
 
  0.2959184E+00  0.0000000E+00  0.2959184E+00  0.4000000E-02
    1       -7.596978   1.000000
    2       -1.007980   1.000000
    3        1.570937   1.000000
    4        1.570938   1.000000
    5        5.308103   0.000000
    6        6.017550   0.000000
    7       10.183849   0.000000
    8       10.183849   0.000000
    9       10.256437   0.000000
   10       13.694288   0.000000
   11       15.106322   0.000000
   12       16.237471   0.000000
   13       16.237471   0.000000
   14       16.668898   0.000000
   15       18.309241   0.000000
   16       18.309241   0.000000
   17       19.383826   0.000000
   18       19.966090   0.000000
   19       23.376377   0.000000
   20       25.698397   0.000000
 
  0.3061224E+00  0.0000000E+00  0.3061224E+00  0.4000000E-02
    1       -7.539763   1.000000
    2       -1.130859   1.000000
    3        1.514573   1.000000
    4        1.514574   1.000000
    5        5.257879   0.000000
    6        5.985408   0.000000
    7       10.329977   0.000000
    8       10.329977   0.000000
    9       10.357388   0.000000
   10       13.755557   0.000000
   11       15.261767   0.000000
   12       16.409346   0.000000
   13       16.409346   0.000000
   14       16.839980   0.000000
   15       18.102530   0.000000
   16       18.102530   0.000000
   17       19.212922   0.000000
   18       19.806855   0.000000
   19       23.676845   0.000000
   20       25.523368   0.000000
 
  0.3163265E+00  0.0000000E+00  0.3163265E+00  0.4000000E-02
    1       -7.482213   1.000000
    2       -1.250904   1.000000
    3        1.460625   1.000000
    4        1.460625   1.000000
    5        5.210653   0.000000
    6        5.947939   0.000000
    7       10.468218   0.000000
    8       10.476511   0.000000
    9       10.476511   0.000000
   10       13.818201   0.000000
   11       15.405017   0.000000
   12       16.583365   0.000000
   13       16.583365   0.000000
   14       17.018700   0.000000
   15       17.901476   0.000000
   16       17.901476   0.000000
   17       19.046183   0.000000
   18       19.661060   0.000000
   19       23.965115   0.000000
   20       25.270568   0.000000
 
  0.3265306E+00  0.0000000E+00  0.3265306E+00  0.4000000E-02
    1       -7.424568   1.000000
    2       -1.367846   1.000000
    3        1.409177   1.000000
    4        1.409177   1.000000
    5        5.166455   0.000000
    6        5.906452   0.000000
    7       10.587364   0.000000
    8       10.623248   0.000000
    9       10.623249   0.000000
   10       13.882065   0.000000
   11       15.534183   0.000000
   12       16.756022   0.000000
   13       16.756022   0.000000
   14       17.203973   0.000000
   15       17.709670   0.000000
   16       17.709670   0.000000
   17       18.883775   0.000000
   18       19.532076   0.000000
   19       24.237441   0.000000
   20       24.960086   0.000000
 
  0.3367347E+00  0.0000000E+00  0.3367347E+00  0.4000000E-02
    1       -7.367092   1.000000
    2       -1.481398   1.000000
    3        1.360307   1.000000
    4        1.360307   1.000000
    5        5.125298   0.000000
    6        5.862141   0.000000
    7       10.713332   0.000000
    8       10.769962   0.000000
    9       10.769962   0.000000
   10       13.946967   0.000000
   11       15.647236   0.000000
   12       16.915973   0.000000
   13       16.915973   0.000000
   14       17.394182   0.000000
   15       17.538580   0.000000
   16       17.538580   0.000000
   17       18.725896   0.000000
   18       19.423867   0.000000
   19       24.486662   0.000000
   20       24.670808   0.000000
 
  0.3469388E+00  0.0000000E+00  0.3469388E+00  0.4000000E-02
    1       -7.310075   1.000000
    2       -1.591247   1.000000
    3        1.314086   1.000000
    4        1.314086   1.000000
    5        5.087180   0.000000
    6        5.816082   0.000000
    7       10.844701   0.000000
    8       10.916382   0.000000
    9       10.916382   0.000000
   10       14.012688   0.000000
   11       15.742042   0.000000
   12       17.016263   0.000000
   13       17.016263   0.000000
   14       17.435324   0.000000
   15       17.435324   0.000000
   16       17.587103   0.000000
   17       18.572776   0.000000
   18       19.341055   0.000000
   19       24.381445   0.000000
   20       24.634483   0.000000
 
  0.3571429E+00  0.0000000E+00  0.3571429E+00  0.4000000E-02
    1       -7.253846   1.000000
    2       -1.697061   1.000000
    3        1.270574   1.000000
    4        1.270575   1.000000
    5        5.052086   0.000000
    6        5.769226   0.000000
    7       10.980110   0.000000
    8       11.062184   0.000000
    9       11.062184   0.000000
   10       14.078968   0.000000
   11       15.816496   0.000000
   12       16.965965   0.000000
   13       16.965965   0.000000
   14       17.491037   0.000000
   15       17.491037   0.000000
   16       17.779861   0.000000
   17       18.424684   0.000000
   18       19.288854   0.000000
   19       24.066385   0.000000
   20       24.380635   0.000000
 
  0.3673469E+00  0.0000000E+00  0.3673469E+00  0.4000000E-02
    1       -7.198731   1.000000
    2       -1.798465   1.000000
    3        1.229838   1.000000
    4        1.229838   1.000000
    5        5.019991   0.000000
    6        5.722408   0.000000
    7       11.118237   0.000000
    8       11.206984   0.000000
    9       11.206984   0.000000
   10       14.145497   0.000000
   11       15.868814   0.000000
   12       16.820597   0.000000
   13       16.820597   0.000000
   14       17.650481   0.000000
   15       17.650481   0.000000
   16       17.969003   0.000000
   17       18.281945   0.000000
   18       19.272729   0.000000
   19       23.786113   0.000000
   20       24.115816   0.000000
 
  0.3775510E+00  0.0000000E+00  0.3775510E+00  0.4000000E-02
    1       -7.145095   1.000000
    2       -1.895067   1.000000
    3        1.191927   1.000000
    4        1.191928   1.000000
    5        4.990858   0.000000
    6        5.676368   0.000000
    7       11.257776   0.000000
    8       11.350308   0.000000
    9       11.350308   0.000000
   10       14.211904   0.000000
   11       15.897957   0.000000
   12       16.652625   0.000000
   13       16.652625   0.000000
   14       17.841554   0.000000
   15       17.841554   0.000000
   16       18.144937   0.000000
   17       18.150916   0.000000
   18       19.297557   0.000000
   19       23.500778   0.000000
   20       23.850302   0.000000
 
  0.3877551E+00  0.0000000E+00  0.3877551E+00  0.4000000E-02
    1       -7.093347   1.000000
    2       -1.986450   1.000000
    3        1.156884   1.000000
    4        1.156885   1.000000
    5        4.964633   0.000000
    6        5.631742   0.000000
    7       11.397377   0.000000
    8       11.491559   0.000000
    9       11.491559   0.000000
   10       14.277747   0.000000
   11       15.904028   0.000000
   12       16.481275   0.000000
   13       16.481275   0.000000
   14       18.014110   0.000000
   15       18.045499   0.000000
   16       18.045499   0.000000
   17       18.322922   0.000000
   18       19.366108   0.000000
   19       23.220940   0.000000
   20       23.582278   0.000000
 
  0.3979592E+00  0.0000000E+00  0.3979592E+00  0.4000000E-02
    1       -7.043900   1.000000
    2       -2.072166   1.000000
    3        1.124754   1.000000
    4        1.124755   1.000000
    5        4.941249   0.000000
    6        5.589105   0.000000
    7       11.535650   0.000000
    8       11.630006   0.000000
    9       11.630006   0.000000
   10       14.342498   0.000000
   11       15.888519   0.000000
   12       16.312359   0.000000
   13       16.312359   0.000000
   14       17.890000   0.000000
   15       18.257109   0.000000
   16       18.257109   0.000000
   17       18.484770   0.000000
   18       19.477299   0.000000
   19       22.944448   0.000000
   20       23.312808   0.000000
 
  0.4081633E+00  0.0000000E+00  0.4081633E+00  0.4000000E-02
    1       -6.997199   1.000000
    2       -2.151756   1.000000
    3        1.095576   1.000000
    4        1.095576   1.000000
    5        4.920625   0.000000
    6        5.548962   0.000000
    7       11.671080   0.000000
    8       11.764724   0.000000
    9       11.764724   0.000000
   10       14.405538   0.000000
   11       15.854260   0.000000
   12       16.148632   0.000000
   13       16.148632   0.000000
   14       17.773230   0.000000
   15       18.474396   0.000000
   16       18.474397   0.000000
   17       18.639223   0.000000
   18       19.625568   0.000000
   19       22.709000   0.000000
   20       23.043044   0.000000
 
  0.4183673E+00  0.0000000E+00  0.4183673E+00  0.4000000E-02
    1       -6.953708   1.000000
    2       -2.224745   1.000000
    3        1.069381   1.000000