 vasp.5.4.1 24Jun15 (build Jul 24 2019 15:43:00) complex                        
  
 executed on IFC18.0.1.163_CrayMP date 2022.06.14  12:35:47
 running on   68 total cores
 distrk:  each k-point on    4 cores,   17 groups
 distr:  one band on NCORES_PER_BAND=   1 cores,    4 groups


--------------------------------------------------------------------------------------------------------


 INCAR:
 POTCAR:    PAW_PBE In 08Apr2002                  
 POTCAR:    PAW_PBE As 22Sep2009                  

 ----------------------------------------------------------------------------- 
|                                                                             |
|           W    W    AA    RRRRR   N    N  II  N    N   GGGG   !!!           |
|           W    W   A  A   R    R  NN   N  II  NN   N  G    G  !!!           |
|           W    W  A    A  R    R  N N  N  II  N N  N  G       !!!           |
|           W WW W  AAAAAA  RRRRR   N  N N  II  N  N N  G  GGG   !            |
|           WW  WW  A    A  R   R   N   NN  II  N   NN  G    G                |
|           W    W  A    A  R    R  N    N  II  N    N   GGGG   !!!           |
|                                                                             |
|      For optimal performance we recommend to set                            |
|        NCORE= 4 - approx SQRT( number of cores)                             |
|      NCORE specifies how many cores store one orbital (NPAR=cpu/NCORE).     |
|      This setting can  greatly improve the performance of VASP for DFT.     |
|      The default, NPAR=number of cores might be grossly inefficient         |
|      on modern multi-core architectures or massively parallel machines.     |
|      Do your own testing !!!!                                               |
|      Unfortunately you need to use the default for GW and RPA calculations. |
|      (for HF NCORE is supported but not extensively tested yet)             |
|                                                                             |
 ----------------------------------------------------------------------------- 


 ----------------------------------------------------------------------------- 
|                                                                             |
|           W    W    AA    RRRRR   N    N  II  N    N   GGGG   !!!           |
|           W    W   A  A   R    R  NN   N  II  NN   N  G    G  !!!           |
|           W    W  A    A  R    R  N N  N  II  N N  N  G       !!!           |
|           W WW W  AAAAAA  RRRRR   N  N N  II  N  N N  G  GGG   !            |
|           WW  WW  A    A  R   R   N   NN  II  N   NN  G    G                |
|           W    W  A    A  R    R  N    N  II  N    N   GGGG   !!!           |
|                                                                             |
|      You have enabled k-point parallelism (KPAR>1).                         |
|      This developmental code was originally  written by Paul Kent at ORNL,  |
|      and carefully double checked in Vienna.                                |
|      GW as well as linear response parallelism added by Martijn Marsman     |
|      and Georg Kresse.                                                      |
|      Carefully verify results versus KPAR=1.                                |
|      Report problems to Paul Kent and Vienna.                               |
|                                                                             |
 ----------------------------------------------------------------------------- 

 POTCAR:    PAW_PBE In 08Apr2002                  
   VRHFIN =In: s2p1                                                             
   LEXCH  = PE                                                                  
   EATOM  =    53.7908 eV,    3.9535 Ry                                         
                                                                                
   TITEL  = PAW_PBE In 08Apr2002                                                
   LULTRA =        F    use ultrasoft PP ?                                      
   IUNSCR =        1    unscreen: 0-lin 1-nonlin 2-no                           
   RPACOR =    2.400    partial core radius                                     
   POMASS =  114.820; ZVAL   =    3.000    mass and valenz                      
   RCORE  =    3.100    outmost cutoff radius                                   
   RWIGS  =    3.170; RWIGS  =    1.677    wigner-seitz radius (au A)           
   ENMAX  =   95.934; ENMIN  =   71.951 eV                                      
   ICORE  =        3    local potential                                         
   LCOR   =        T    correct aug charges                                     
   LPAW   =        T    paw PP                                                  
   EAUG   =  237.125                                                            
   DEXC   =    0.000                                                            
   RMAX   =    3.168    core radius for proj-oper                               
   RAUG   =    1.300    factor for augmentation sphere                          
   RDEP   =    3.187    radius for radial grids                                 
   RDEPT  =    2.711    core radius for aug-charge                              
                                                                                
   Atomic configuration                                                         
   13 entries                                                                   
     n  l   j            E        occ.                                          
     1  0  0.50    -27747.9169   2.0000                                         
     2  0  0.50     -4154.4438   2.0000                                         
     2  1  1.50     -3728.4305   6.0000                                         
     3  0  0.50      -788.3680   2.0000                                         
     3  1  1.50      -648.9215   6.0000                                         
     3  2  2.50      -432.5893  10.0000                                         
     4  0  0.50      -119.6363   2.0000                                         
     4  1  1.50       -78.1086   6.0000                                         
     4  2  2.50       -18.6227  10.0000                                         
     5  0  0.50        -8.2107   2.0000                                         
     5  1  0.50        -2.5185   1.0000                                         
     5  2  2.50        -1.3606   0.0000                                         
     4  3  2.50        -2.7212   0.0000                                         
   Description                                                                  
     l       E           TYP  RCUT    TYP  RCUT                                 
     0     -8.2107306     23  3.100                                             
     0     -6.1485975     23  3.100                                             
     1     -2.5184867     23  3.100                                             
     1      3.2427302     23  3.100                                             
     2     -1.3605826     23  3.100                                             
     3     -1.3605826     23  3.100                                             
  local pseudopotential read in
  partial core-charges read in
  partial kinetic energy density read in
  atomic valenz-charges read in
  non local Contribution for L=           0  read in
    real space projection operators read in
  non local Contribution for L=           0  read in
    real space projection operators read in
  non local Contribution for L=           1  read in
    real space projection operators read in
  non local Contribution for L=           1  read in
    real space projection operators read in
  non local Contribution for L=           2  read in
    real space projection operators read in
    PAW grid and wavefunctions read in
 
   number of l-projection  operators is LMAX  =           5
   number of lm-projection operators is LMMAX =          13
 
 POTCAR:    PAW_PBE As 22Sep2009                  
   VRHFIN =As: s2p3                                                             
   LEXCH  = PE                                                                  
   EATOM  =   170.1867 eV,   12.5084 Ry                                         
                                                                                
   TITEL  = PAW_PBE As 22Sep2009                                                
   LULTRA =        F    use ultrasoft PP ?                                      
   IUNSCR =        1    unscreen: 0-lin 1-nonlin 2-no                           
   RPACOR =    1.900    partial core radius                                     
   POMASS =   74.922; ZVAL   =    5.000    mass and valenz                      
   RCORE  =    2.100    outmost cutoff radius                                   
   RWIGS  =    2.300; RWIGS  =    1.217    wigner-seitz radius (au A)           
   ENMAX  =  208.702; ENMIN  =  156.526 eV                                      
   ICORE  =        3    local potential                                         
   LCOR   =        T    correct aug charges                                     
   LPAW   =        T    paw PP                                                  
   EAUG   =  462.758                                                            
   DEXC   =    0.000                                                            
   RMAX   =    2.144    core radius for proj-oper                               
   RAUG   =    1.300    factor for augmentation sphere                          
   RDEP   =    2.140    radius for radial grids                                 
   RDEPT  =    1.956    core radius for aug-charge                              
                                                                                
   Atomic configuration                                                         
   10 entries                                                                   
     n  l   j            E        occ.                                          
     1  0  0.50    -11718.0418   2.0000                                         
     2  0  0.50     -1486.5454   2.0000                                         
     2  1  1.50     -1303.3889   6.0000                                         
     3  0  0.50      -190.2849   2.0000                                         
     3  1  1.50      -133.6555   6.0000                                         
     3  2  2.50       -40.6443  10.0000                                         
     4  0  0.50       -14.4936   2.0000                                         
     4  1  0.50        -5.1947   3.0000                                         
     4  2  1.50        -5.4423   0.0000                                         
     4  3  2.50        -5.4423   0.0000                                         
   Description                                                                  
     l       E           TYP  RCUT    TYP  RCUT                                 
     0    -14.4935570     23  2.100                                             
     0    -11.9212055     23  2.100                                             
     1     -5.1947127     23  2.100                                             
     1     27.2116520     23  2.100                                             
     2     -5.4423304     23  2.100                                             
     3     -1.3605826      7  2.100                                             
  local pseudopotential read in
  partial core-charges read in
  partial kinetic energy density read in
  atomic valenz-charges read in
  non local Contribution for L=           0  read in
    real space projection operators read in
  non local Contribution for L=           0  read in
    real space projection operators read in
  non local Contribution for L=           1  read in
    real space projection operators read in
  non local Contribution for L=           1  read in
    real space projection operators read in
  non local Contribution for L=           2  read in
    real space projection operators read in
    PAW grid and wavefunctions read in
 
   number of l-projection  operators is LMAX  =           5
   number of lm-projection operators is LMMAX =          13
 
  PAW_PBE In 08Apr2002                  :
 energy of atom  1       EATOM=  -53.7908
 kinetic energy error for atom=    0.0000 (will be added to EATOM!!)
  PAW_PBE As 22Sep2009                  :
 energy of atom  2       EATOM= -170.1867
 kinetic energy error for atom=    0.0013 (will be added to EATOM!!)
 
 
 POSCAR: In1 As1                                 
  positions in direct lattice
  velocities in cartesian coordinates
  No initial velocities read in
 exchange correlation table for  LEXCH =        8
   RHO(1)=    0.500       N(1)  =     2000
   RHO(2)=  100.500       N(2)  =     4000
 


--------------------------------------------------------------------------------------------------------


 ion  position               nearest neighbor table
   1  0.000  0.000  0.000-   2 2.62   2 2.62   2 2.62   2 2.62
   2  0.250  0.250  0.250-   1 2.62   1 2.62   1 2.62   1 2.62
 
  LATTYP: Found a face centered cubic cell.
 ALAT       =     6.0584000000
  
  Lattice vectors:
  
 A1 = (   0.0000000000,   3.0292000000,   3.0292000000)
 A2 = (   3.0292000000,   0.0000000000,   3.0292000000)
 A3 = (   3.0292000000,   3.0292000000,   0.0000000000)


Analysis of symmetry for initial positions (statically):
=====================================================================
 Subroutine PRICEL returns:
 Original cell was already a primitive cell.
 

 Routine SETGRP: Setting up the symmetry group for a 
 face centered cubic supercell.


 Subroutine GETGRP returns: Found 24 space group operations
 (whereof 24 operations were pure point group operations)
 out of a pool of 48 trial point group operations.


The static configuration has the point symmetry T_d .


Analysis of symmetry for dynamics (positions and initial velocities):
=====================================================================
 Subroutine PRICEL returns:
 Original cell was already a primitive cell.
 

 Routine SETGRP: Setting up the symmetry group for a 
 face centered cubic supercell.


 Subroutine GETGRP returns: Found 24 space group operations
 (whereof 24 operations were pure point group operations)
 out of a pool of 48 trial point group operations.


The dynamic configuration has the point symmetry T_d .


 Subroutine INISYM returns: Found 24 space group operations
 (whereof 24 operations are pure point group operations),
 and found     1 'primitive' translations

 
 
 KPOINTS: Line_mode KPOINTS file                  
  interpolating k-points between supplied coordinates
  k-points in reciprocal lattice
Space group operators:
 irot       det(A)        alpha          n_x          n_y          n_z        tau_x        tau_y        tau_z
    1     1.000000     0.000000     1.000000     0.000000     0.000000     0.000000     0.000000     0.000000
    2     1.000000   120.000000    -0.577350    -0.577350    -0.577350     0.000000     0.000000     0.000000
    3     1.000000   120.000000     0.577350     0.577350     0.577350     0.000000     0.000000     0.000000
    4    -1.000000    90.000000    -0.000000    -0.000000    -1.000000     0.000000     0.000000     0.000000
    5    -1.000000   180.000000    -0.000000     0.707107     0.707107     0.000000     0.000000     0.000000
    6    -1.000000    90.000000    -0.000000     1.000000    -0.000000     0.000000     0.000000     0.000000
    7     1.000000   180.000000    -0.000000     0.000000     1.000000     0.000000     0.000000     0.000000
    8     1.000000   120.000000    -0.577350     0.577350     0.577350     0.000000     0.000000     0.000000
    9     1.000000   120.000000    -0.577350     0.577350    -0.577350     0.000000     0.000000     0.000000
   10    -1.000000    90.000000     0.000000     0.000000     1.000000     0.000000     0.000000     0.000000
   11    -1.000000    90.000000    -1.000000     0.000000     0.000000     0.000000     0.000000     0.000000
   12    -1.000000   180.000000     0.707107     0.000000     0.707107     0.000000     0.000000     0.000000
   13     1.000000   120.000000     0.577350    -0.577350     0.577350     0.000000     0.000000     0.000000
   14     1.000000   120.000000    -0.577350    -0.577350     0.577350     0.000000     0.000000     0.000000
   15     1.000000   180.000000     1.000000     0.000000     0.000000     0.000000     0.000000     0.000000
   16    -1.000000    90.000000     0.000000    -1.000000     0.000000     0.000000     0.000000     0.000000
   17    -1.000000   180.000000     0.707107     0.707107    -0.000000     0.000000     0.000000     0.000000
   18    -1.000000    90.000000     1.000000     0.000000     0.000000     0.000000     0.000000     0.000000
   19     1.000000   120.000000     0.577350    -0.577350    -0.577350     0.000000     0.000000     0.000000
   20     1.000000   180.000000    -0.000000     1.000000    -0.000000     0.000000     0.000000     0.000000
   21     1.000000   120.000000     0.577350     0.577350    -0.577350     0.000000     0.000000     0.000000
   22    -1.000000   180.000000    -0.000000    -0.707107     0.707107     0.000000     0.000000     0.000000
   23    -1.000000   180.000000     0.707107    -0.707107     0.000000     0.000000     0.000000     0.000000
   24    -1.000000   180.000000     0.707107     0.000000    -0.707107     0.000000     0.000000     0.000000


--------------------------------------------------------------------------------------------------------




 Dimension of arrays:
   k-points           NKPTS =    250   k-points in BZ     NKDIM =    250   number of bands    NBANDS=     20
   number of dos      NEDOS =    301   number of ions     NIONS =      2
   non local maximal  LDIM  =      5   non local SUM 2l+1 LMDIM =     13
   total plane-waves  NPLWV =  13824
   max r-space proj   IRMAX =      1   max aug-charges    IRDMAX=  28249
   dimension x,y,z NGX =    24 NGY =   24 NGZ =   24
   dimension x,y,z NGXF=    48 NGYF=   48 NGZF=   48
   support grid    NGXF=    48 NGYF=   48 NGZF=   48
   ions per type =               1   1
 NGX,Y,Z   is equivalent  to a cutoff of   9.31,  9.31,  9.31 a.u.
 NGXF,Y,Z  is equivalent  to a cutoff of  18.63, 18.63, 18.63 a.u.


 I would recommend the setting:
   dimension x,y,z NGX =    21 NGY =   21 NGZ =   21
 SYSTEM =  unknown system                          
 POSCAR =  In1 As1                                 

 Startparameter for this run:
   NWRITE =      2    write-flag & timer
   PREC   = n         normal or accurate (medium, high low for compatibility)
   ISTART =      0    job   : 0-new  1-cont  2-samecut
   ICHARG =     11    charge: 1-file 2-atom 10-const
   ISPIN  =      1    spin polarized calculation?
   LNONCOLLINEAR =      F non collinear calculations
   LSORBIT =      F    spin-orbit coupling
   INIWAV =      1    electr: 0-lowe 1-rand  2-diag
   LASPH  =      T    aspherical Exc in radial PAW
   METAGGA=      F    non-selfconsistent MetaGGA calc.

 Electronic Relaxation 1
   ENCUT  =  400.0 eV  29.40 Ry    5.42 a.u.   6.99  6.99  6.99*2*pi/ulx,y,z
   ENINI  =  400.0     initial cutoff
   ENAUG  =  462.8 eV  augmentation charge cutoff
   NELM   =    500;   NELMIN=  2; NELMDL= -5     # of ELM steps 
   EDIFF  = 0.1E-04   stopping-criterion for ELM
   LREAL  =      F    real-space projection
   NLSPLINE    = F    spline interpolate recip. space projectors
   LCOMPAT=      F    compatible to vasp.4.4
   GGA_COMPAT  = T    GGA compatible to vasp.4.4-vasp.4.6
   LMAXPAW     = -100 max onsite density
   LMAXMIX     =    2 max onsite mixed and CHGCAR
   VOSKOWN=      0    Vosko Wilk Nusair interpolation
   ROPT   =    0.00000   0.00000
 Ionic relaxation
   EDIFFG = 0.1E-03   stopping-criterion for IOM
   NSW    =      0    number of steps for IOM
   NBLOCK =      1;   KBLOCK =      1    inner block; outer block 
   IBRION =     -1    ionic relax: 0-MD 1-quasi-New 2-CG
   NFREE  =      0    steps in history (QN), initial steepest desc. (CG)
   ISIF   =      2    stress and relaxation
   IWAVPR =     10    prediction:  0-non 1-charg 2-wave 3-comb
   ISYM   =      2    0-nonsym 1-usesym 2-fastsym
   LCORR  =      T    Harris-Foulkes like correction to forces

   POTIM  = 0.5000    time-step for ionic-motion
   TEIN   =    0.0    initial temperature
   TEBEG  =    0.0;   TEEND  =   0.0 temperature during run
   SMASS  =  -3.00    Nose mass-parameter (am)
   estimated Nose-frequenzy (Omega)   =  0.10E-29 period in steps =****** mass=  -0.419E-27a.u.
   SCALEE = 1.0000    scale energy and forces
   NPACO  =    256;   APACO  = 16.0  distance and # of slots for P.C.
   PSTRESS=    0.0 pullay stress

  Mass of Ions in am
   POMASS = 114.82 74.92
  Ionic Valenz
   ZVAL   =   3.00  5.00
  Atomic Wigner-Seitz radii
   RWIGS  =  -1.00 -1.00
  virtual crystal weights 
   VCA    =   1.00  1.00
   NELECT =       8.0000    total number of electrons
   NUPDOWN=      -1.0000    fix difference up-down

 DOS related values:
   EMIN   =  10.00;   EMAX   =-10.00  energy-range for DOS
   EFERMI =   0.00
   ISMEAR =     0;   SIGMA  =   0.05  broadening in eV -4-tet -1-fermi 0-gaus

 Electronic relaxation 2 (details)
   IALGO  =     68    algorithm
   LDIAG  =      T    sub-space diagonalisation (order eigenvalues)
   LSUBROT=      F    optimize rotation matrix (better conditioning)
   TURBO    =      0    0=normal 1=particle mesh
   IRESTART =      0    0=no restart 2=restart with 2 vectors
   NREBOOT  =      0    no. of reboots
   NMIN     =      0    reboot dimension
   EREF     =   0.00    reference energy to select bands
   IMIX   =      4    mixing-type and parameters
     AMIX     =   0.40;   BMIX     =  3.00
     AMIX_MAG =   1.60;   BMIX_MAG =  3.00
     AMIN     =   0.01
     WC   =   100.;   INIMIX=   1;  MIXPRE=   1;  MAXMIX= -45

 Intra band minimization:
   WEIMIN = 0.0000     energy-eigenvalue tresh-hold
   EBREAK =  0.13E-06  absolut break condition
   DEPER  =   0.30     relativ break condition  

   TIME   =   0.40     timestep for ELM

  volume/ion in A,a.u.               =      27.80       187.58
  Fermi-wavevector in a.u.,A,eV,Ry     =   0.857894  1.621184 10.013641  0.735982
  Thomas-Fermi vector in A             =   1.975016
 
 Write flags
   LWAVE  =      F    write WAVECAR
   LCHARG =      F    write CHGCAR
   LVTOT  =      F    write LOCPOT, total local potential
   LVHAR  =      F    write LOCPOT, Hartree potential only
   LELF   =      F    write electronic localiz. function (ELF)
   LORBIT =     11    0 simple, 1 ext, 2 COOP (PROOUT)


 Dipole corrections
   LMONO  =      F    monopole corrections only (constant potential shift)
   LDIPOL =      F    correct potential (dipole corrections)
   IDIPOL =      0    1-x, 2-y, 3-z, 4-all directions 
   EPSILON=  1.0000000 bulk dielectric constant

 Exchange correlation treatment:
   GGA     =    --    GGA type
   LEXCH   =     8    internal setting for exchange type
   VOSKOWN=      0    Vosko Wilk Nusair interpolation
   LHFCALC =     F    Hartree Fock is set to
   LHFONE  =     F    Hartree Fock one center treatment
   AEXX    =    0.0000 exact exchange contribution

 Linear response parameters
   LEPSILON=     F    determine dielectric tensor
   LRPA    =     F    only Hartree local field effects (RPA)
   LNABLA  =     F    use nabla operator in PAW spheres
   LVEL    =     F    velocity operator in full k-point grid
   LINTERFAST=   F  fast interpolation
   KINTER  =     0    interpolate to denser k-point grid
   CSHIFT  =0.1000    complex shift for real part using Kramers Kronig
   OMEGAMAX=  -1.0    maximum frequency
   DEG_THRESHOLD= 0.2000000E-02 threshold for treating states as degnerate
   RTIME   =    0.100 relaxation time in fs

 Orbital magnetization related:
   ORBITALMAG=     F  switch on orbital magnetization
   LCHIMAG   =     F  perturbation theory with respect to B field
   DQ        =  0.001000  dq finite difference perturbation B field



--------------------------------------------------------------------------------------------------------


 Static calculation
 charge density and potential remain constant during run
 non-spin polarized calculation
 RMM-DIIS sequential band-by-band and
  variant of blocked Davidson during initial phase
 perform sub-space diagonalisation
    before iterative eigenvector-optimisation
 no mixing
 using additional bands           16
 reciprocal scheme for non local part
 use partial core corrections
 calculate Harris-corrections to forces 
   (improved forces if not selfconsistent)
 use gradient corrections 
 WARNING: stress and forces are not correct
  (second derivative of E(xc) not defined)
 use of overlap-Matrix (Vanderbilt PP)
 Gauss-broadening in eV      SIGMA  =   0.05


--------------------------------------------------------------------------------------------------------


  energy-cutoff  :      400.00
  volume of cell :       55.59
      direct lattice vectors                 reciprocal lattice vectors
     0.000000000  3.029200000  3.029200000    -0.165060082  0.165060082  0.165060082
     3.029200000  0.000000000  3.029200000     0.165060082 -0.165060082  0.165060082
     3.029200000  3.029200000  0.000000000     0.165060082  0.165060082 -0.165060082

  length of vectors
     4.283935723  4.283935723  4.283935723     0.285892448  0.285892448  0.285892448


 
 k-points in units of 2pi/SCALE and weight: Line_mode KPOINTS file                  
   0.00000000  0.00000000  0.00000000       0.004
  -0.00000000  0.00336857  0.00000000       0.004
  -0.00000000  0.00673715  0.00000000       0.004
  -0.00000000  0.01010572  0.00000000       0.004
  -0.00000000  0.01347429  0.00000000       0.004
  -0.00000000  0.01684287  0.00000000       0.004
  -0.00000000  0.02021144  0.00000000       0.004
  -0.00000000  0.02358001  0.00000000       0.004
  -0.00000000  0.02694858  0.00000000       0.004
  -0.00000000  0.03031716  0.00000000       0.004
  -0.00000000  0.03368573  0.00000000       0.004
  -0.00000000  0.03705430  0.00000000       0.004
  -0.00000000  0.04042288  0.00000000       0.004
  -0.00000000  0.04379145  0.00000000       0.004
  -0.00000000  0.04716002  0.00000000       0.004
  -0.00000000  0.05052860  0.00000000       0.004
  -0.00000000  0.05389717  0.00000000       0.004
   0.00000000  0.05726574 -0.00000000       0.004
  -0.00000000  0.06063432  0.00000000       0.004
   0.00000000  0.06400289 -0.00000000       0.004
  -0.00000000  0.06737146  0.00000000       0.004
  -0.00000000  0.07074004  0.00000000       0.004
  -0.00000000  0.07410861  0.00000000       0.004
   0.00000000  0.07747718 -0.00000000       0.004
  -0.00000000  0.08084575  0.00000000       0.004
   0.00000000  0.08421433 -0.00000000       0.004
  -0.00000000  0.08758290  0.00000000       0.004
   0.00000000  0.09095147 -0.00000000       0.004
  -0.00000000  0.09432005  0.00000000       0.004
   0.00000000  0.09768862 -0.00000000       0.004
  -0.00000000  0.10105719  0.00000000       0.004
   0.00000000  0.10442577 -0.00000000       0.004
  -0.00000000  0.10779434  0.00000000       0.004
   0.00000000  0.11116291 -0.00000000       0.004
   0.00000000  0.11453149 -0.00000000       0.004
   0.00000000  0.11790006 -0.00000000       0.004
  -0.00000000  0.12126863  0.00000000       0.004
   0.00000000  0.12463720 -0.00000000       0.004
   0.00000000  0.12800578 -0.00000000       0.004
  -0.00000000  0.13137435  0.00000000       0.004
  -0.00000000  0.13474292  0.00000000       0.004
   0.00000000  0.13811150 -0.00000000       0.004
  -0.00000000  0.14148007  0.00000000       0.004
  -0.00000000  0.14484864  0.00000000       0.004
  -0.00000000  0.14821722  0.00000000       0.004
  -0.00000000  0.15158579  0.00000000       0.004
   0.00000000  0.15495436 -0.00000000       0.004
   0.00000000  0.15832294 -0.00000000       0.004
  -0.00000000  0.16169151  0.00000000       0.004
   0.00000000  0.16506008 -0.00000000       0.004
   0.00000000  0.16506008  0.00000000       0.004
   0.00168429  0.16506008  0.00000000       0.004
   0.00336857  0.16506008 -0.00000000       0.004
   0.00505286  0.16506008  0.00000000       0.004
   0.00673715  0.16506008 -0.00000000       0.004
   0.00842143  0.16506008  0.00000000       0.004
   0.01010572  0.16506008 -0.00000000       0.004
   0.01179001  0.16506008  0.00000000       0.004
   0.01347429  0.16506008 -0.00000000       0.004
   0.01515858  0.16506008 -0.00000000       0.004
   0.01684287  0.16506008  0.00000000       0.004
   0.01852715  0.16506008 -0.00000000       0.004
   0.02021144  0.16506008  0.00000000       0.004
   0.02189573  0.16506008 -0.00000000       0.004
   0.02358001  0.16506008  0.00000000       0.004
   0.02526430  0.16506008 -0.00000000       0.004
   0.02694858  0.16506008 -0.00000000       0.004
   0.02863287  0.16506008 -0.00000000       0.004
   0.03031716  0.16506008 -0.00000000       0.004
   0.03200144  0.16506008  0.00000000       0.004
   0.03368573  0.16506008 -0.00000000       0.004
   0.03537002  0.16506008  0.00000000       0.004
   0.03705430  0.16506008  0.00000000       0.004
   0.03873859  0.16506008  0.00000000       0.004
   0.04042288  0.16506008 -0.00000000       0.004
   0.04210716  0.16506008  0.00000000       0.004
   0.04379145  0.16506008 -0.00000000       0.004
   0.04547574  0.16506008 -0.00000000       0.004
   0.04716002  0.16506008  0.00000000       0.004
   0.04884431  0.16506008  0.00000000       0.004
   0.05052860  0.16506008  0.00000000       0.004
   0.05221288  0.16506008 -0.00000000       0.004
   0.05389717  0.16506008  0.00000000       0.004
   0.05558146  0.16506008 -0.00000000       0.004
   0.05726574  0.16506008  0.00000000       0.004
   0.05895003  0.16506008 -0.00000000       0.004
   0.06063432  0.16506008  0.00000000       0.004
   0.06231860  0.16506008  0.00000000       0.004
   0.06400289  0.16506008 -0.00000000       0.004
   0.06568718  0.16506008  0.00000000       0.004
   0.06737146  0.16506008 -0.00000000       0.004
   0.06905575  0.16506008 -0.00000000       0.004
   0.07074004  0.16506008  0.00000000       0.004
   0.07242432  0.16506008  0.00000000       0.004
   0.07410861  0.16506008 -0.00000000       0.004
   0.07579289  0.16506008  0.00000000       0.004
   0.07747718  0.16506008  0.00000000       0.004
   0.07916147  0.16506008 -0.00000000       0.004
   0.08084575  0.16506008  0.00000000       0.004
   0.08253004  0.16506008 -0.00000000       0.004
   0.08253004  0.16506008  0.00000000       0.004
   0.08253004  0.16337580  0.00168429       0.004
   0.08253004  0.16169151  0.00336857       0.004
   0.08253004  0.16000722  0.00505286       0.004
   0.08253004  0.15832294  0.00673715       0.004
   0.08253004  0.15663865  0.00842143       0.004
   0.08253004  0.15495436  0.01010572       0.004
   0.08253004  0.15327008  0.01179001       0.004
   0.08253004  0.15158579  0.01347429       0.004
   0.08253004  0.14990150  0.01515858       0.004
   0.08253004  0.14821722  0.01684287       0.004
   0.08253004  0.14653293  0.01852715       0.004
   0.08253004  0.14484864  0.02021144       0.004
   0.08253004  0.14316436  0.02189573       0.004
   0.08253004  0.14148007  0.02358001       0.004
   0.08253004  0.13979578  0.02526430       0.004
   0.08253004  0.13811150  0.02694858       0.004
   0.08253004  0.13642721  0.02863287       0.004
   0.08253004  0.13474292  0.03031716       0.004
   0.08253004  0.13305864  0.03200144       0.004
   0.08253004  0.13137435  0.03368573       0.004
   0.08253004  0.12969006  0.03537002       0.004
   0.08253004  0.12800578  0.03705430       0.004
   0.08253004  0.12632149  0.03873859       0.004
   0.08253004  0.12463720  0.04042288       0.004
   0.08253004  0.12295292  0.04210716       0.004
   0.08253004  0.12126863  0.04379145       0.004
   0.08253004  0.11958435  0.04547574       0.004
   0.08253004  0.11790006  0.04716002       0.004
   0.08253004  0.11621577  0.04884431       0.004
   0.08253004  0.11453149  0.05052860       0.004
   0.08253004  0.11284720  0.05221288       0.004
   0.08253004  0.11116291  0.05389717       0.004
   0.08253004  0.10947863  0.05558146       0.004
   0.08253004  0.10779434  0.05726574       0.004
   0.08253004  0.10611005  0.05895003       0.004
   0.08253004  0.10442577  0.06063432       0.004
   0.08253004  0.10274148  0.06231860       0.004
   0.08253004  0.10105719  0.06400289       0.004
   0.08253004  0.09937291  0.06568718       0.004
   0.08253004  0.09768862  0.06737146       0.004
   0.08253004  0.09600433  0.06905575       0.004
   0.08253004  0.09432005  0.07074004       0.004
   0.08253004  0.09263576  0.07242432       0.004
   0.08253004  0.09095147  0.07410861       0.004
   0.08253004  0.08926719  0.07579289       0.004
   0.08253004  0.08758290  0.07747718       0.004
   0.08253004  0.08589861  0.07916147       0.004
   0.08253004  0.08421433  0.08084575       0.004
   0.08253004  0.08253004  0.08253004       0.004
   0.08253004  0.08253004  0.08253004       0.004
   0.08084575  0.08084575  0.08084575       0.004
   0.07916147  0.07916147  0.07916147       0.004
   0.07747718  0.07747718  0.07747718       0.004
   0.07579289  0.07579289  0.07579289       0.004
   0.07410861  0.07410861  0.07410861       0.004
   0.07242432  0.07242432  0.07242432       0.004
   0.07074004  0.07074004  0.07074004       0.004
   0.06905575  0.06905575  0.06905575       0.004
   0.06737146  0.06737146  0.06737146       0.004
   0.06568718  0.06568718  0.06568718       0.004
   0.06400289  0.06400289  0.06400289       0.004
   0.06231860  0.06231860  0.06231860       0.004
   0.06063432  0.06063432  0.06063432       0.004
   0.05895003  0.05895003  0.05895003       0.004
   0.05726574  0.05726574  0.05726574       0.004
   0.05558146  0.05558146  0.05558146       0.004
   0.05389717  0.05389717  0.05389717       0.004
   0.05221288  0.05221288  0.05221288       0.004
   0.05052860  0.05052860  0.05052860       0.004
   0.04884431  0.04884431  0.04884431       0.004
   0.04716002  0.04716002  0.04716002       0.004
   0.04547574  0.04547574  0.04547574       0.004
   0.04379145  0.04379145  0.04379145       0.004
   0.04210716  0.04210716  0.04210716       0.004
   0.04042288  0.04042288  0.04042288       0.004
   0.03873859  0.03873859  0.03873859       0.004
   0.03705430  0.03705430  0.03705430       0.004
   0.03537002  0.03537002  0.03537002       0.004
   0.03368573  0.03368573  0.03368573       0.004
   0.03200144  0.03200144  0.03200144       0.004
   0.03031716  0.03031716  0.03031716       0.004
   0.02863287  0.02863287  0.02863287       0.004
   0.02694858  0.02694858  0.02694858       0.004
   0.02526430  0.02526430  0.02526430       0.004
   0.02358001  0.02358001  0.02358001       0.004
   0.02189573  0.02189573  0.02189573       0.004
   0.02021144  0.02021144  0.02021144       0.004
   0.01852715  0.01852715  0.01852715       0.004
   0.01684287  0.01684287  0.01684287       0.004
   0.01515858  0.01515858  0.01515858       0.004
   0.01347429  0.01347429  0.01347429       0.004
   0.01179001  0.01179001  0.01179001       0.004
   0.01010572  0.01010572  0.01010572       0.004
   0.00842143  0.00842143  0.00842143       0.004
   0.00673715  0.00673715  0.00673715       0.004
   0.00505286  0.00505286  0.00505286       0.004
   0.00336857  0.00336857  0.00336857       0.004
   0.00168429  0.00168429  0.00168429       0.004
   0.00000000  0.00000000  0.00000000       0.004
   0.00000000  0.00000000  0.00000000       0.004
   0.00252643  0.00252643  0.00000000       0.004
   0.00505286  0.00505286  0.00000000       0.004
   0.00757929  0.00757929  0.00000000       0.004
   0.01010572  0.01010572  0.00000000       0.004
   0.01263215  0.01263215  0.00000000       0.004
   0.01515858  0.01515858  0.00000000       0.004
   0.01768501  0.01768501  0.00000000       0.004
   0.02021144  0.02021144  0.00000000       0.004
   0.02273787  0.02273787 -0.00000000       0.004
   0.02526430  0.02526430  0.00000000       0.004
   0.02779073  0.02779073 -0.00000000       0.004
   0.03031716  0.03031716  0.00000000       0.004
   0.03284359  0.03284359 -0.00000000       0.004
   0.03537002  0.03537002  0.00000000       0.004
   0.03789645  0.03789645 -0.00000000       0.004
   0.04042288  0.04042288  0.00000000       0.004
   0.04294931  0.04294931  0.00000000       0.004
   0.04547574  0.04547574 -0.00000000       0.004
   0.04800217  0.04800217 -0.00000000       0.004
   0.05052860  0.05052860  0.00000000       0.004
   0.05305503  0.05305503  0.00000000       0.004
   0.05558146  0.05558146 -0.00000000       0.004
   0.05810789  0.05810789 -0.00000000       0.004
   0.06063432  0.06063432  0.00000000       0.004
   0.06316075  0.06316075 -0.00000000       0.004
   0.06568718  0.06568718 -0.00000000       0.004
   0.06821361  0.06821361 -0.00000000       0.004
   0.07074004  0.07074004  0.00000000       0.004
   0.07326646  0.07326646  0.00000000       0.004
   0.07579289  0.07579289 -0.00000000       0.004
   0.07831932  0.07831932  0.00000000       0.004
   0.08084575  0.08084575  0.00000000       0.004
   0.08337218  0.08337218  0.00000000       0.004
   0.08589861  0.08589861  0.00000000       0.004
   0.08842504  0.08842504  0.00000000       0.004
   0.09095147  0.09095147 -0.00000000       0.004
   0.09347790  0.09347790  0.00000000       0.004
   0.09600433  0.09600433 -0.00000000       0.004
   0.09853076  0.09853076 -0.00000000       0.004
   0.10105719  0.10105719  0.00000000       0.004
   0.10358362  0.10358362 -0.00000000       0.004
   0.10611005  0.10611005  0.00000000       0.004
   0.10863648  0.10863648 -0.00000000       0.004
   0.11116291  0.11116291 -0.00000000       0.004
   0.11368934  0.11368934  0.00000000       0.004
   0.11621577  0.11621577 -0.00000000       0.004
   0.11874220  0.11874220  0.00000000       0.004
   0.12126863  0.12126863  0.00000000       0.004
   0.12379506  0.12379506  0.00000000       0.004
 
 k-points in reciprocal lattice and weights: Line_mode KPOINTS file                  
   0.00000000  0.00000000  0.00000000       0.004
   0.01020408  0.00000000  0.01020408       0.004
   0.02040816  0.00000000  0.02040816       0.004
   0.03061224  0.00000000  0.03061224       0.004
   0.04081633  0.00000000  0.04081633       0.004
   0.05102041  0.00000000  0.05102041       0.004
   0.06122449  0.00000000  0.06122449       0.004
   0.07142857  0.00000000  0.07142857       0.004
   0.08163265  0.00000000  0.08163265       0.004
   0.09183673  0.00000000  0.09183673       0.004
   0.10204082  0.00000000  0.10204082       0.004
   0.11224490  0.00000000  0.11224490       0.004
   0.12244898  0.00000000  0.12244898       0.004
   0.13265306  0.00000000  0.13265306       0.004
   0.14285714  0.00000000  0.14285714       0.004
   0.15306122  0.00000000  0.15306122       0.004
   0.16326531  0.00000000  0.16326531       0.004
   0.17346939  0.00000000  0.17346939       0.004
   0.18367347  0.00000000  0.18367347       0.004
   0.19387755  0.00000000  0.19387755       0.004
   0.20408163  0.00000000  0.20408163       0.004
   0.21428571  0.00000000  0.21428571       0.004
   0.22448980  0.00000000  0.22448980       0.004
   0.23469388  0.00000000  0.23469388       0.004
   0.24489796  0.00000000  0.24489796       0.004
   0.25510204  0.00000000  0.25510204       0.004
   0.26530612  0.00000000  0.26530612       0.004
   0.27551020  0.00000000  0.27551020       0.004
   0.28571429  0.00000000  0.28571429       0.004
   0.29591837  0.00000000  0.29591837       0.004
   0.30612245  0.00000000  0.30612245       0.004
   0.31632653  0.00000000  0.31632653       0.004
   0.32653061  0.00000000  0.32653061       0.004
   0.33673469  0.00000000  0.33673469       0.004
   0.34693878  0.00000000  0.34693878       0.004
   0.35714286  0.00000000  0.35714286       0.004
   0.36734694  0.00000000  0.36734694       0.004
   0.37755102  0.00000000  0.37755102       0.004
   0.38775510  0.00000000  0.38775510       0.004
   0.39795918  0.00000000  0.39795918       0.004
   0.40816327  0.00000000  0.40816327       0.004
   0.41836735  0.00000000  0.41836735       0.004
   0.42857143  0.00000000  0.42857143       0.004
   0.43877551  0.00000000  0.43877551       0.004
   0.44897959  0.00000000  0.44897959       0.004
   0.45918367  0.00000000  0.45918367       0.004
   0.46938776  0.00000000  0.46938776       0.004
   0.47959184  0.00000000  0.47959184       0.004
   0.48979592  0.00000000  0.48979592       0.004
   0.50000000  0.00000000  0.50000000       0.004
   0.50000000  0.00000000  0.50000000       0.004
   0.50000000  0.00510204  0.50510204       0.004
   0.50000000  0.01020408  0.51020408       0.004
   0.50000000  0.01530612  0.51530612       0.004
   0.50000000  0.02040816  0.52040816       0.004
   0.50000000  0.02551020  0.52551020       0.004
   0.50000000  0.03061224  0.53061224       0.004
   0.50000000  0.03571429  0.53571429       0.004
   0.50000000  0.04081633  0.54081633       0.004
   0.50000000  0.04591837  0.54591837       0.004
   0.50000000  0.05102041  0.55102041       0.004
   0.50000000  0.05612245  0.55612245       0.004
   0.50000000  0.06122449  0.56122449       0.004
   0.50000000  0.06632653  0.56632653       0.004
   0.50000000  0.07142857  0.57142857       0.004
   0.50000000  0.07653061  0.57653061       0.004
   0.50000000  0.08163265  0.58163265       0.004
   0.50000000  0.08673469  0.58673469       0.004
   0.50000000  0.09183673  0.59183673       0.004
   0.50000000  0.09693878  0.59693878       0.004
   0.50000000  0.10204082  0.60204082       0.004
   0.50000000  0.10714286  0.60714286       0.004
   0.50000000  0.11224490  0.61224490       0.004
   0.50000000  0.11734694  0.61734694       0.004
   0.50000000  0.12244898  0.62244898       0.004
   0.50000000  0.12755102  0.62755102       0.004
   0.50000000  0.13265306  0.63265306       0.004
   0.50000000  0.13775510  0.63775510       0.004
   0.50000000  0.14285714  0.64285714       0.004
   0.50000000  0.14795918  0.64795918       0.004
   0.50000000  0.15306122  0.65306122       0.004
   0.50000000  0.15816327  0.65816327       0.004
   0.50000000  0.16326531  0.66326531       0.004
   0.50000000  0.16836735  0.66836735       0.004
   0.50000000  0.17346939  0.67346939       0.004
   0.50000000  0.17857143  0.67857143       0.004
   0.50000000  0.18367347  0.68367347       0.004
   0.50000000  0.18877551  0.68877551       0.004
   0.50000000  0.19387755  0.69387755       0.004
   0.50000000  0.19897959  0.69897959       0.004
   0.50000000  0.20408163  0.70408163       0.004
   0.50000000  0.20918367  0.70918367       0.004
   0.50000000  0.21428571  0.71428571       0.004
   0.50000000  0.21938776  0.71938776       0.004
   0.50000000  0.22448980  0.72448980       0.004
   0.50000000  0.22959184  0.72959184       0.004
   0.50000000  0.23469388  0.73469388       0.004
   0.50000000  0.23979592  0.73979592       0.004
   0.50000000  0.24489796  0.74489796       0.004
   0.50000000  0.25000000  0.75000000       0.004
   0.50000000  0.25000000  0.75000000       0.004
   0.50000000  0.25510204  0.74489796       0.004
   0.50000000  0.26020408  0.73979592       0.004
   0.50000000  0.26530612  0.73469388       0.004
   0.50000000  0.27040816  0.72959184       0.004
   0.50000000  0.27551020  0.72448980       0.004
   0.50000000  0.28061224  0.71938776       0.004
   0.50000000  0.28571429  0.71428571       0.004
   0.50000000  0.29081633  0.70918367       0.004
   0.50000000  0.29591837  0.70408163       0.004
   0.50000000  0.30102041  0.69897959       0.004
   0.50000000  0.30612245  0.69387755       0.004
   0.50000000  0.31122449  0.68877551       0.004
   0.50000000  0.31632653  0.68367347       0.004
   0.50000000  0.32142857  0.67857143       0.004
   0.50000000  0.32653061  0.67346939       0.004
   0.50000000  0.33163265  0.66836735       0.004
   0.50000000  0.33673469  0.66326531       0.004
   0.50000000  0.34183673  0.65816327       0.004
   0.50000000  0.34693878  0.65306122       0.004
   0.50000000  0.35204082  0.64795918       0.004
   0.50000000  0.35714286  0.64285714       0.004
   0.50000000  0.36224490  0.63775510       0.004
   0.50000000  0.36734694  0.63265306       0.004
   0.50000000  0.37244898  0.62755102       0.004
   0.50000000  0.37755102  0.62244898       0.004
   0.50000000  0.38265306  0.61734694       0.004
   0.50000000  0.38775510  0.61224490       0.004
   0.50000000  0.39285714  0.60714286       0.004
   0.50000000  0.39795918  0.60204082       0.004
   0.50000000  0.40306122  0.59693878       0.004
   0.50000000  0.40816327  0.59183673       0.004
   0.50000000  0.41326531  0.58673469       0.004
   0.50000000  0.41836735  0.58163265       0.004
   0.50000000  0.42346939  0.57653061       0.004
   0.50000000  0.42857143  0.57142857       0.004
   0.50000000  0.43367347  0.56632653       0.004
   0.50000000  0.43877551  0.56122449       0.004
   0.50000000  0.44387755  0.55612245       0.004
   0.50000000  0.44897959  0.55102041       0.004
   0.50000000  0.45408163  0.54591837       0.004
   0.50000000  0.45918367  0.54081633       0.004
   0.50000000  0.46428571  0.53571429       0.004
   0.50000000  0.46938776  0.53061224       0.004
   0.50000000  0.47448980  0.52551020       0.004
   0.50000000  0.47959184  0.52040816       0.004
   0.50000000  0.48469388  0.51530612       0.004
   0.50000000  0.48979592  0.51020408       0.004
   0.50000000  0.49489796  0.50510204       0.004
   0.50000000  0.50000000  0.50000000       0.004
   0.50000000  0.50000000  0.50000000       0.004
   0.48979592  0.48979592  0.48979592       0.004
   0.47959184  0.47959184  0.47959184       0.004
   0.46938776  0.46938776  0.46938776       0.004
   0.45918367  0.45918367  0.45918367       0.004
   0.44897959  0.44897959  0.44897959       0.004
   0.43877551  0.43877551  0.43877551       0.004
   0.42857143  0.42857143  0.42857143       0.004
   0.41836735  0.41836735  0.41836735       0.004
   0.40816327  0.40816327  0.40816327       0.004
   0.39795918  0.39795918  0.39795918       0.004
   0.38775510  0.38775510  0.38775510       0.004
   0.37755102  0.37755102  0.37755102       0.004
   0.36734694  0.36734694  0.36734694       0.004
   0.35714286  0.35714286  0.35714286       0.004
   0.34693878  0.34693878  0.34693878       0.004
   0.33673469  0.33673469  0.33673469       0.004
   0.32653061  0.32653061  0.32653061       0.004
   0.31632653  0.31632653  0.31632653       0.004
   0.30612245  0.30612245  0.30612245       0.004
   0.29591837  0.29591837  0.29591837       0.004
   0.28571429  0.28571429  0.28571429       0.004
   0.27551020  0.27551020  0.27551020       0.004
   0.26530612  0.26530612  0.26530612       0.004
   0.25510204  0.25510204  0.25510204       0.004
   0.24489796  0.24489796  0.24489796       0.004
   0.23469388  0.23469388  0.23469388       0.004
   0.22448980  0.22448980  0.22448980       0.004
   0.21428571  0.21428571  0.21428571       0.004
   0.20408163  0.20408163  0.20408163       0.004
   0.19387755  0.19387755  0.19387755       0.004
   0.18367347  0.18367347  0.18367347       0.004
   0.17346939  0.17346939  0.17346939       0.004
   0.16326531  0.16326531  0.16326531       0.004
   0.15306122  0.15306122  0.15306122       0.004
   0.14285714  0.14285714  0.14285714       0.004
   0.13265306  0.13265306  0.13265306       0.004
   0.12244898  0.12244898  0.12244898       0.004
   0.11224490  0.11224490  0.11224490       0.004
   0.10204082  0.10204082  0.10204082       0.004
   0.09183673  0.09183673  0.09183673       0.004
   0.08163265  0.08163265  0.08163265       0.004
   0.07142857  0.07142857  0.07142857       0.004
   0.06122449  0.06122449  0.06122449       0.004
   0.05102041  0.05102041  0.05102041       0.004
   0.04081633  0.04081633  0.04081633       0.004
   0.03061224  0.03061224  0.03061224       0.004
   0.02040816  0.02040816  0.02040816       0.004
   0.01020408  0.01020408  0.01020408       0.004
   0.00000000  0.00000000  0.00000000       0.004
   0.00000000  0.00000000  0.00000000       0.004
   0.00765306  0.00765306  0.01530612       0.004
   0.01530612  0.01530612  0.03061224       0.004
   0.02295918  0.02295918  0.04591837       0.004
   0.03061224  0.03061224  0.06122449       0.004
   0.03826531  0.03826531  0.07653061       0.004
   0.04591837  0.04591837  0.09183673       0.004
   0.05357143  0.05357143  0.10714286       0.004
   0.06122449  0.06122449  0.12244898       0.004
   0.06887755  0.06887755  0.13775510       0.004
   0.07653061  0.07653061  0.15306122       0.004
   0.08418367  0.08418367  0.16836735       0.004
   0.09183673  0.09183673  0.18367347       0.004
   0.09948980  0.09948980  0.19897959       0.004
   0.10714286  0.10714286  0.21428571       0.004
   0.11479592  0.11479592  0.22959184       0.004
   0.12244898  0.12244898  0.24489796       0.004
   0.13010204  0.13010204  0.26020408       0.004
   0.13775510  0.13775510  0.27551020       0.004
   0.14540816  0.14540816  0.29081633       0.004
   0.15306122  0.15306122  0.30612245       0.004
   0.16071429  0.16071429  0.32142857       0.004
   0.16836735  0.16836735  0.33673469       0.004
   0.17602041  0.17602041  0.35204082       0.004
   0.18367347  0.18367347  0.36734694       0.004
   0.19132653  0.19132653  0.38265306       0.004
   0.19897959  0.19897959  0.39795918       0.004
   0.20663265  0.20663265  0.41326531       0.004
   0.21428571  0.21428571  0.42857143       0.004
   0.22193878  0.22193878  0.44387755       0.004
   0.22959184  0.22959184  0.45918367       0.004
   0.23724490  0.23724490  0.47448980       0.004
   0.24489796  0.24489796  0.48979592       0.004
   0.25255102  0.25255102  0.50510204       0.004
   0.26020408  0.26020408  0.52040816       0.004
   0.26785714  0.26785714  0.53571429       0.004
   0.27551020  0.27551020  0.55102041       0.004
   0.28316327  0.28316327  0.56632653       0.004
   0.29081633  0.29081633  0.58163265       0.004
   0.29846939  0.29846939  0.59693878       0.004
   0.30612245  0.30612245  0.61224490       0.004
   0.31377551  0.31377551  0.62755102       0.004
   0.32142857  0.32142857  0.64285714       0.004
   0.32908163  0.32908163  0.65816327       0.004
   0.33673469  0.33673469  0.67346939       0.004
   0.34438776  0.34438776  0.68877551       0.004
   0.35204082  0.35204082  0.70408163       0.004
   0.35969388  0.35969388  0.71938776       0.004
   0.36734694  0.36734694  0.73469388       0.004
   0.37500000  0.37500000  0.75000000       0.004
 
 position of ions in fractional coordinates (direct lattice) 
   0.00000000  0.00000000  0.00000000
   0.25000000  0.25000000  0.25000000
 
 position of ions in cartesian coordinates  (Angst):
   0.00000000  0.00000000  0.00000000
   1.51460000  1.51460000  1.51460000
 


--------------------------------------------------------------------------------------------------------


 k-point  1 :   0.0000 0.0000 0.0000  plane waves:     965
 k-point  2 :   0.0102 0.0000 0.0102  plane waves:     965
 k-point  3 :   0.0204 0.0000 0.0204  plane waves:     965
 k-point  4 :   0.0306 0.0000 0.0306  plane waves:     965
 k-point  5 :   0.0408 0.0000 0.0408  plane waves:     969
 k-point  6 :   0.0510 0.0000 0.0510  plane waves:     977
 k-point  7 :   0.0612 0.0000 0.0612  plane waves:     978
 k-point  8 :   0.0714 0.0000 0.0714  plane waves:     986
 k-point  9 :   0.0816 0.0000 0.0816  plane waves:     990
 k-point 10 :   0.0918 0.0000 0.0918  plane waves:     990
 k-point 11 :   0.1020 0.0000 0.1020  plane waves:     986
 k-point 12 :   0.1122 0.0000 0.1122  plane waves:     986
 k-point 13 :   0.1224 0.0000 0.1224  plane waves:     994
 k-point 14 :   0.1327 0.0000 0.1327  plane waves:     994
 k-point 15 :   0.1429 0.0000 0.1429  plane waves:     994
 k-point 16 :   0.1531 0.0000 0.1531  plane waves:     994
 k-point 17 :   0.1633 0.0000 0.1633  plane waves:     998
 k-point 18 :   0.1735 0.0000 0.1735  plane waves:     998
 k-point 19 :   0.1837 0.0000 0.1837  plane waves:     990
 k-point 20 :   0.1939 0.0000 0.1939  plane waves:     990
 k-point 21 :   0.2041 0.0000 0.2041  plane waves:     990
 k-point 22 :   0.2143 0.0000 0.2143  plane waves:     998
 k-point 23 :   0.2245 0.0000 0.2245  plane waves:     998
 k-point 24 :   0.2347 0.0000 0.2347  plane waves:     998
 k-point 25 :   0.2449 0.0000 0.2449  plane waves:     998
 k-point 26 :   0.2551 0.0000 0.2551  plane waves:     998
 k-point 27 :   0.2653 0.0000 0.2653  plane waves:     998
 k-point 28 :   0.2755 0.0000 0.2755  plane waves:    1010
 k-point 29 :   0.2857 0.0000 0.2857  plane waves:    1018
 k-point 30 :   0.2959 0.0000 0.2959  plane waves:    1018
 k-point 31 :   0.3061 0.0000 0.3061  plane waves:    1018
 k-point 32 :   0.3163 0.0000 0.3163  plane waves:    1018
 k-point 33 :   0.3265 0.0000 0.3265  plane waves:    1018
 k-point 34 :   0.3367 0.0000 0.3367  plane waves:    1018
 k-point 35 :   0.3469 0.0000 0.3469  plane waves:    1018
 k-point 36 :   0.3571 0.0000 0.3571  plane waves:    1026
 k-point 37 :   0.3673 0.0000 0.3673  plane waves:    1026
 k-point 38 :   0.3776 0.0000 0.3776  plane waves:    1018
 k-point 39 :   0.3878 0.0000 0.3878  plane waves:    1018
 k-point 40 :   0.3980 0.0000 0.3980  plane waves:    1014
 k-point 41 :   0.4082 0.0000 0.4082  plane waves:    1006
 k-point 42 :   0.4184 0.0000 0.4184  plane waves:    1006
 k-point 43 :   0.4286 0.0000 0.4286  plane waves:    1006
 k-point 44 :   0.4388 0.0000 0.4388  plane waves:    1006
 k-point 45 :   0.4490 0.0000 0.4490  plane waves:    1006
 k-point 46 :   0.4592 0.0000 0.4592  plane waves:    1006
 k-point 47 :   0.4694 0.0000 0.4694  plane waves:    1006
 k-point 48 :   0.4796 0.0000 0.4796  plane waves:    1002
 k-point 49 :   0.4898 0.0000 0.4898  plane waves:     998
 k-point 50 :   0.5000 0.0000 0.5000  plane waves:     998
 k-point 51 :   0.5000 0.0000 0.5000  plane waves:     998
 k-point 52 :   0.5000 0.0051 0.5051  plane waves:     998
 k-point 53 :   0.5000 0.0102 0.5102  plane waves:     998
 k-point 54 :   0.5000 0.0153 0.5153  plane waves:    1004
 k-point 55 :   0.5000 0.0204 0.5204  plane waves:    1008
 k-point 56 :   0.5000 0.0255 0.5255  plane waves:    1004
 k-point 57 :   0.5000 0.0306 0.5306  plane waves:    1004
 k-point 58 :   0.5000 0.0357 0.5357  plane waves:    1008
 k-point 59 :   0.5000 0.0408 0.5408  plane waves:    1006
 k-point 60 :   0.5000 0.0459 0.5459  plane waves:    1006
 k-point 61 :   0.5000 0.0510 0.5510  plane waves:    1006
 k-point 62 :   0.5000 0.0561 0.5561  plane waves:    1006
 k-point 63 :   0.5000 0.0612 0.5612  plane waves:    1006
 k-point 64 :   0.5000 0.0663 0.5663  plane waves:    1006
 k-point 65 :   0.5000 0.0714 0.5714  plane waves:    1006
 k-point 66 :   0.5000 0.0765 0.5765  plane waves:    1006
 k-point 67 :   0.5000 0.0816 0.5816  plane waves:    1006
 k-point 68 :   0.5000 0.0867 0.5867  plane waves:    1008
 k-point 69 :   0.5000 0.0918 0.5918  plane waves:    1008
 k-point 70 :   0.5000 0.0969 0.5969  plane waves:    1008
 k-point 71 :   0.5000 0.1020 0.6020  plane waves:    1004
 k-point 72 :   0.5000 0.1071 0.6071  plane waves:    1004
 k-point 73 :   0.5000 0.1122 0.6122  plane waves:    1012
 k-point 74 :   0.5000 0.1173 0.6173  plane waves:    1012
 k-point 75 :   0.5000 0.1224 0.6224  plane waves:    1012
 k-point 76 :   0.5000 0.1276 0.6276  plane waves:    1008
 k-point 77 :   0.5000 0.1327 0.6327  plane waves:    1008
 k-point 78 :   0.5000 0.1378 0.6378  plane waves:    1008
 k-point 79 :   0.5000 0.1429 0.6429  plane waves:    1004
 k-point 80 :   0.5000 0.1480 0.6480  plane waves:    1012
 k-point 81 :   0.5000 0.1531 0.6531  plane waves:    1012
 k-point 82 :   0.5000 0.1582 0.6582  plane waves:    1012
 k-point 83 :   0.5000 0.1633 0.6633  plane waves:    1016
 k-point 84 :   0.5000 0.1684 0.6684  plane waves:    1016
 k-point 85 :   0.5000 0.1735 0.6735  plane waves:    1016
 k-point 86 :   0.5000 0.1786 0.6786  plane waves:    1016
 k-point 87 :   0.5000 0.1837 0.6837  plane waves:    1016
 k-point 88 :   0.5000 0.1888 0.6888  plane waves:    1020
 k-point 89 :   0.5000 0.1939 0.6939  plane waves:    1020
 k-point 90 :   0.5000 0.1990 0.6990  plane waves:    1020
 k-point 91 :   0.5000 0.2041 0.7041  plane waves:    1020
 k-point 92 :   0.5000 0.2092 0.7092  plane waves:    1018
 k-point 93 :   0.5000 0.2143 0.7143  plane waves:    1018
 k-point 94 :   0.5000 0.2194 0.7194  plane waves:    1018
 k-point 95 :   0.5000 0.2245 0.7245  plane waves:    1018
 k-point 96 :   0.5000 0.2296 0.7296  plane waves:    1026
 k-point 97 :   0.5000 0.2347 0.7347  plane waves:    1026
 k-point 98 :   0.5000 0.2398 0.7398  plane waves:    1036
 k-point 99 :   0.5000 0.2449 0.7449  plane waves:    1036
 k-point ** :   0.5000 0.2500 0.7500  plane waves:    1036
 k-point ** :   0.5000 0.2500 0.7500  plane waves:    1036
 k-point ** :   0.5000 0.2551 0.7449  plane waves:    1036
 k-point ** :   0.5000 0.2602 0.7398  plane waves:    1028
 k-point ** :   0.5000 0.2653 0.7347  plane waves:    1024
 k-point ** :   0.5000 0.2704 0.7296  plane waves:    1020
 k-point ** :   0.5000 0.2755 0.7245  plane waves:    1020
 k-point ** :   0.5000 0.2806 0.7194  plane waves:    1020
 k-point ** :   0.5000 0.2857 0.7143  plane waves:    1022
 k-point ** :   0.5000 0.2908 0.7092  plane waves:    1022
 k-point ** :   0.5000 0.2959 0.7041  plane waves:    1020
 k-point ** :   0.5000 0.3010 0.6990  plane waves:    1020
 k-point ** :   0.5000 0.3061 0.6939  plane waves:    1018
 k-point ** :   0.5000 0.3112 0.6888  plane waves:    1018
 k-point ** :   0.5000 0.3163 0.6837  plane waves:    1014
 k-point ** :   0.5000 0.3214 0.6786  plane waves:    1016
 k-point ** :   0.5000 0.3265 0.6735  plane waves:    1016
 k-point ** :   0.5000 0.3316 0.6684  plane waves:    1010
 k-point ** :   0.5000 0.3367 0.6633  plane waves:    1012
 k-point ** :   0.5000 0.3418 0.6582  plane waves:    1012
 k-point ** :   0.5000 0.3469 0.6531  plane waves:    1012
 k-point ** :   0.5000 0.3520 0.6480  plane waves:    1010
 k-point ** :   0.5000 0.3571 0.6429  plane waves:    1016
 k-point ** :   0.5000 0.3622 0.6378  plane waves:    1018
 k-point ** :   0.5000 0.3673 0.6327  plane waves:    1016
 k-point ** :   0.5000 0.3724 0.6276  plane waves:    1010
 k-point ** :   0.5000 0.3776 0.6224  plane waves:    1010
 k-point ** :   0.5000 0.3827 0.6173  plane waves:    1016
 k-point ** :   0.5000 0.3878 0.6122  plane waves:    1018
 k-point ** :   0.5000 0.3929 0.6071  plane waves:    1014
 k-point ** :   0.5000 0.3980 0.6020  plane waves:    1014
 k-point ** :   0.5000 0.4031 0.5969  plane waves:    1016
 k-point ** :   0.5000 0.4082 0.5918  plane waves:    1014
 k-point ** :   0.5000 0.4133 0.5867  plane waves:    1016
 k-point ** :   0.5000 0.4184 0.5816  plane waves:    1016
 k-point ** :   0.5000 0.4235 0.5765  plane waves:    1016
 k-point ** :   0.5000 0.4286 0.5714  plane waves:    1010
 k-point ** :   0.5000 0.4337 0.5663  plane waves:    1012
 k-point ** :   0.5000 0.4388 0.5612  plane waves:    1012
 k-point ** :   0.5000 0.4439 0.5561  plane waves:    1010
 k-point ** :   0.5000 0.4490 0.5510  plane waves:    1010
 k-point ** :   0.5000 0.4541 0.5459  plane waves:    1006
 k-point ** :   0.5000 0.4592 0.5408  plane waves:    1006
 k-point ** :   0.5000 0.4643 0.5357  plane waves:    1002
 k-point ** :   0.5000 0.4694 0.5306  plane waves:    1002
 k-point ** :   0.5000 0.4745 0.5255  plane waves:    1002
 k-point ** :   0.5000 0.4796 0.5204  plane waves:    1002
 k-point ** :   0.5000 0.4847 0.5153  plane waves:    1008
 k-point ** :   0.5000 0.4898 0.5102  plane waves:    1008
 k-point ** :   0.5000 0.4949 0.5051  plane waves:    1008
 k-point ** :   0.5000 0.5000 0.5000  plane waves:    1008
 k-point ** :   0.5000 0.5000 0.5000  plane waves:    1008
 k-point ** :   0.4898 0.4898 0.4898  plane waves:    1008
 k-point ** :   0.4796 0.4796 0.4796  plane waves:    1008
 k-point ** :   0.4694 0.4694 0.4694  plane waves:    1008
 k-point ** :   0.4592 0.4592 0.4592  plane waves:    1020
 k-point ** :   0.4490 0.4490 0.4490  plane waves:    1017
 k-point ** :   0.4388 0.4388 0.4388  plane waves:    1017
 k-point ** :   0.4286 0.4286 0.4286  plane waves:    1017
 k-point ** :   0.4184 0.4184 0.4184  plane waves:    1017
 k-point ** :   0.4082 0.4082 0.4082  plane waves:    1017
 k-point ** :   0.3980 0.3980 0.3980  plane waves:    1017
 k-point ** :   0.3878 0.3878 0.3878  plane waves:    1017
 k-point ** :   0.3776 0.3776 0.3776  plane waves:    1008
 k-point ** :   0.3673 0.3673 0.3673  plane waves:    1008
 k-point ** :   0.3571 0.3571 0.3571  plane waves:    1008
 k-point ** :   0.3469 0.3469 0.3469  plane waves:    1008
 k-point ** :   0.3367 0.3367 0.3367  plane waves:    1008
 k-point ** :   0.3265 0.3265 0.3265  plane waves:    1008
 k-point ** :   0.3163 0.3163 0.3163  plane waves:    1002
 k-point ** :   0.3061 0.3061 0.3061  plane waves:    1002
 k-point ** :   0.2959 0.2959 0.2959  plane waves:    1001
 k-point ** :   0.2857 0.2857 0.2857  plane waves:    1010
 k-point ** :   0.2755 0.2755 0.2755  plane waves:     995
 k-point ** :   0.2653 0.2653 0.2653  plane waves:     989
 k-point ** :   0.2551 0.2551 0.2551  plane waves:     989
 k-point ** :   0.2449 0.2449 0.2449  plane waves:     995
 k-point ** :   0.2347 0.2347 0.2347  plane waves:     995
 k-point ** :   0.2245 0.2245 0.2245  plane waves:     995
 k-point ** :   0.2143 0.2143 0.2143  plane waves:     995
 k-point ** :   0.2041 0.2041 0.2041  plane waves:     995
 k-point ** :   0.1939 0.1939 0.1939  plane waves:     989
 k-point ** :   0.1837 0.1837 0.1837  plane waves:     989
 k-point ** :   0.1735 0.1735 0.1735  plane waves:     989
 k-point ** :   0.1633 0.1633 0.1633  plane waves:     989
 k-point ** :   0.1531 0.1531 0.1531  plane waves:     989
 k-point ** :   0.1429 0.1429 0.1429  plane waves:     989
 k-point ** :   0.1327 0.1327 0.1327  plane waves:     989
 k-point ** :   0.1224 0.1224 0.1224  plane waves:     989
 k-point ** :   0.1122 0.1122 0.1122  plane waves:     986
 k-point ** :   0.1020 0.1020 0.1020  plane waves:     986
 k-point ** :   0.0918 0.0918 0.0918  plane waves:     986
 k-point ** :   0.0816 0.0816 0.0816  plane waves:     980
 k-point ** :   0.0714 0.0714 0.0714  plane waves:     974
 k-point ** :   0.0612 0.0612 0.0612  plane waves:     974
 k-point ** :   0.0510 0.0510 0.0510  plane waves:     971
 k-point ** :   0.0408 0.0408 0.0408  plane waves:     965
 k-point ** :   0.0306 0.0306 0.0306  plane waves:     965
 k-point ** :   0.0204 0.0204 0.0204  plane waves:     965
 k-point ** :   0.0102 0.0102 0.0102  plane waves:     965
 k-point ** :   0.0000 0.0000 0.0000  plane waves:     965
 k-point ** :   0.0000 0.0000 0.0000  plane waves:     965
 k-point ** :   0.0077 0.0077 0.0153  plane waves:     965
 k-point ** :   0.0153 0.0153 0.0306  plane waves:     965
 k-point ** :   0.0230 0.0230 0.0459  plane waves:     965
 k-point ** :   0.0306 0.0306 0.0612  plane waves:     975
 k-point ** :   0.0383 0.0383 0.0765  plane waves:     973
 k-point ** :   0.0459 0.0459 0.0918  plane waves:     979
 k-point ** :   0.0536 0.0536 0.1071  plane waves:     977
 k-point ** :   0.0612 0.0612 0.1224  plane waves:     989
 k-point ** :   0.0689 0.0689 0.1378  plane waves:     989
 k-point ** :   0.0765 0.0765 0.1531  plane waves:     993
 k-point ** :   0.0842 0.0842 0.1684  plane waves:     993
 k-point ** :   0.0918 0.0918 0.1837  plane waves:     993
 k-point ** :   0.0995 0.0995 0.1990  plane waves:     989
 k-point ** :   0.1071 0.1071 0.2143  plane waves:     993
 k-point ** :   0.1148 0.1148 0.2296  plane waves:     993
 k-point ** :   0.1224 0.1224 0.2449  plane waves:     997
 k-point ** :   0.1301 0.1301 0.2602  plane waves:     997
 k-point ** :   0.1378 0.1378 0.2755  plane waves:     995
 k-point ** :   0.1454 0.1454 0.2908  plane waves:     995
 k-point ** :   0.1531 0.1531 0.3061  plane waves:     995
 k-point ** :   0.1607 0.1607 0.3214  plane waves:     991
 k-point ** :   0.1684 0.1684 0.3367  plane waves:     999
 k-point ** :   0.1760 0.1760 0.3520  plane waves:    1005
 k-point ** :   0.1837 0.1837 0.3673  plane waves:    1005
 k-point ** :   0.1913 0.1913 0.3827  plane waves:    1005
 k-point ** :   0.1990 0.1990 0.3980  plane waves:     999
 k-point ** :   0.2066 0.2066 0.4133  plane waves:     999
 k-point ** :   0.2143 0.2143 0.4286  plane waves:    1005
 k-point ** :   0.2219 0.2219 0.4439  plane waves:    1005
 k-point ** :   0.2296 0.2296 0.4592  plane waves:    1015
 k-point ** :   0.2372 0.2372 0.4745  plane waves:    1011
 k-point ** :   0.2449 0.2449 0.4898  plane waves:    1011
 k-point ** :   0.2526 0.2526 0.5051  plane waves:    1019
 k-point ** :   0.2602 0.2602 0.5204  plane waves:    1015
 k-point ** :   0.2679 0.2679 0.5357  plane waves:    1015
 k-point ** :   0.2755 0.2755 0.5510  plane waves:    1011
 k-point ** :   0.2832 0.2832 0.5663  plane waves:    1011
 k-point ** :   0.2908 0.2908 0.5816  plane waves:    1007
 k-point ** :   0.2985 0.2985 0.5969  plane waves:    1011
 k-point ** :   0.3061 0.3061 0.6122  plane waves:    1011
 k-point ** :   0.3138 0.3138 0.6276  plane waves:    1011
 k-point ** :   0.3214 0.3214 0.6429  plane waves:    1011
 k-point ** :   0.3291 0.3291 0.6582  plane waves:    1015
 k-point ** :   0.3367 0.3367 0.6735  plane waves:    1015
 k-point ** :   0.3444 0.3444 0.6888  plane waves:    1007
 k-point ** :   0.3520 0.3520 0.7041  plane waves:    1007
 k-point ** :   0.3597 0.3597 0.7194  plane waves:    1011
 k-point ** :   0.3673 0.3673 0.7347  plane waves:    1011
 k-point ** :   0.3750 0.3750 0.7500  plane waves:    1011

 maximum and minimum number of plane-waves per node :      1036      965

 maximum number of plane-waves:      1036
 maximum index in each direction: 
   IXMAX=    6   IYMAX=    6   IZMAX=    6
   IXMIN=   -7   IYMIN=   -7   IZMIN=   -7

 WARNING: aliasing errors must be expected set NGX to  28 to avoid them
 WARNING: aliasing errors must be expected set NGY to  28 to avoid them
 WARNING: aliasing errors must be expected set NGZ to  28 to avoid them
 aliasing errors are usually negligible using standard VASP settings
 and one can safely disregard these warnings

 serial   3D FFT for wavefunctions
 parallel 3D FFT for charge:
    minimum data exchange during FFTs selected (reduces bandwidth)


 total amount of memory used by VASP on root node   110256. kBytes
========================================================================

   base      :      30000. kBytes
   nonl-proj :      53905. kBytes
   fftplans  :       1959. kBytes
   grid      :       3096. kBytes
   one-center:         16. kBytes
   wavefun   :      21280. kBytes
 
     INWAV:  cpu time    0.0003: real time    0.0022
 initial charge density was supplied:
 number of electron       8.0000003 magnetization 
 keeping initial charge density in first step


--------------------------------------------------------------------------------------------------------


 Maximum index for augmentation-charges         6795 (set IRDMAX)


--------------------------------------------------------------------------------------------------------


 First call to EWALD:  gamma=   0.464
 Maximum number of real-space cells 3x 3x 3
 Maximum number of reciprocal cells 3x 3x 3

 FEWALD executed in parallel
    FEWALD:  cpu time    0.0059: real time    0.0067


----------------------------------------- Iteration    1(   1)  ---------------------------------------


    POTLOK:  cpu time    0.0653: real time    0.0654
    SETDIJ:  cpu time    0.7162: real time    0.7177
     EDDAV:  cpu time    0.5159: real time    0.5316
       DOS:  cpu time    0.0054: real time    0.0065
    --------------------------------------------
      LOOP:  cpu time    1.3133: real time    1.4001

 eigenvalue-minimisations  : 10008
 total energy-change (2. order) : 0.1849270E+02  (-0.2346439E+03)
 number of electron       8.0000003 magnetization 
 augmentation part        8.0000003 magnetization 

 Free energy of the ion-electron system (eV)
  ---------------------------------------------------
  alpha Z        PSCENC =         6.67624893
  Ewald energy   TEWEN  =      -213.84743004
  -Hartree energ DENC   =       -25.54878675
  -exchange      EXHF   =         0.00000000
  -V(xc)+E(xc)   XCENC  =       -66.88262928
  PAW double counting   =       532.69522183     -452.39149593
  entropy T*S    EENTRO =        -0.00159825
  eigenvalues    EBANDS =        13.81696020
  atomic energy  EATOM  =       223.97621261
  Solvation  Ediel_sol  =         0.00000000
  ---------------------------------------------------
  free energy    TOTEN  =        18.49270332 eV

  energy without entropy =       18.49430157  energy(sigma->0) =       18.49350244


--------------------------------------------------------------------------------------------------------




----------------------------------------- Iteration    1(   2)  ---------------------------------------


     EDDAV:  cpu time    0.5779: real time    0.5779
       DOS:  cpu time    0.0031: real time    0.0031
    --------------------------------------------
      LOOP:  cpu time    0.5881: real time    0.6866

 eigenvalue-minimisations  : 12824
 total energy-change (2. order) :-0.2305871E+02  (-0.2179200E+02)
 number of electron       8.0000003 magnetization 
 augmentation part        8.0000003 magnetization 

 Free energy of the ion-electron system (eV)
  ---------------------------------------------------
  alpha Z        PSCENC =         6.67624893
  Ewald energy   TEWEN  =      -213.84743004
  -Hartree energ DENC   =       -25.54878675
  -exchange      EXHF   =         0.00000000
  -V(xc)+E(xc)   XCENC  =       -66.88262928
  PAW double counting   =       532.69522183     -452.39149593
  entropy T*S    EENTRO =        -0.00052577
  eigenvalues    EBANDS =        -9.24281978
  atomic energy  EATOM  =       223.97621261
  Solvation  Ediel_sol  =         0.00000000
  ---------------------------------------------------
  free energy    TOTEN  =        -4.56600418 eV

  energy without entropy =       -4.56547840  energy(sigma->0) =       -4.56574129


--------------------------------------------------------------------------------------------------------




----------------------------------------- Iteration    1(   3)  ---------------------------------------


     EDDAV:  cpu time    0.5632: real time    0.5633
       DOS:  cpu time    0.0035: real time    0.0035
    --------------------------------------------
      LOOP:  cpu time    0.5725: real time    0.8394

 eigenvalue-minimisations  : 12312
 total energy-change (2. order) :-0.9983138E+00  (-0.9928797E+00)
 number of electron       8.0000003 magnetization 
 augmentation part        8.0000003 magnetization 

 Free energy of the ion-electron system (eV)
  ---------------------------------------------------
  alpha Z        PSCENC =         6.67624893
  Ewald energy   TEWEN  =      -213.84743004
  -Hartree energ DENC   =       -25.54878675
  -exchange      EXHF   =         0.00000000
  -V(xc)+E(xc)   XCENC  =       -66.88262928
  PAW double counting   =       532.69522183     -452.39149593
  entropy T*S    EENTRO =        -0.00172620
  eigenvalues    EBANDS =       -10.23993314
  atomic energy  EATOM  =       223.97621261
  Solvation  Ediel_sol  =         0.00000000
  ---------------------------------------------------
  free energy    TOTEN  =        -5.56431797 eV

  energy without entropy =       -5.56259177  energy(sigma->0) =       -5.56345487


--------------------------------------------------------------------------------------------------------




----------------------------------------- Iteration    1(   4)  ---------------------------------------


     EDDAV:  cpu time    0.5714: real time    0.5715
       DOS:  cpu time    0.0031: real time    0.0031
    --------------------------------------------
      LOOP:  cpu time    0.5807: real time    0.6139

 eigenvalue-minimisations  : 12140
 total energy-change (2. order) :-0.4538169E-02  (-0.4537572E-02)
 number of electron       8.0000003 magnetization 
 augmentation part        8.0000003 magnetization 

 Free energy of the ion-electron system (eV)
  ---------------------------------------------------
  alpha Z        PSCENC =         6.67624893
  Ewald energy   TEWEN  =      -213.84743004
  -Hartree energ DENC   =       -25.54878675
  -exchange      EXHF   =         0.00000000
  -V(xc)+E(xc)   XCENC  =       -66.88262928
  PAW double counting   =       532.69522183     -452.39149593
  entropy T*S    EENTRO =        -0.00172262
  eigenvalues    EBANDS =       -10.24447489
  atomic energy  EATOM  =       223.97621261
  Solvation  Ediel_sol  =         0.00000000
  ---------------------------------------------------
  free energy    TOTEN  =        -5.56885614 eV

  energy without entropy =       -5.56713352  energy(sigma->0) =       -5.56799483


--------------------------------------------------------------------------------------------------------




----------------------------------------- Iteration    1(   5)  ---------------------------------------


     EDDAV:  cpu time    0.5601: real time    0.5601
       DOS:  cpu time    0.0030: real time    0.0030
    --------------------------------------------
      LOOP:  cpu time    0.5688: real time    0.5907

 eigenvalue-minimisations  : 12132
 total energy-change (2. order) :-0.1521485E-04  (-0.1521456E-04)
 number of electron       8.0000003 magnetization 
 augmentation part        8.0000003 magnetization 

 Free energy of the ion-electron system (eV)
  ---------------------------------------------------
  alpha Z        PSCENC =         6.67624893
  Ewald energy   TEWEN  =      -213.84743004
  -Hartree energ DENC   =       -25.54878675
  -exchange      EXHF   =         0.00000000
  -V(xc)+E(xc)   XCENC  =       -66.88262928
  PAW double counting   =       532.69522183     -452.39149593
  entropy T*S    EENTRO =        -0.00172261
  eigenvalues    EBANDS =       -10.24449011
  atomic energy  EATOM  =       223.97621261
  Solvation  Ediel_sol  =         0.00000000
  ---------------------------------------------------
  free energy    TOTEN  =        -5.56887135 eV

  energy without entropy =       -5.56714874  energy(sigma->0) =       -5.56801005


--------------------------------------------------------------------------------------------------------




----------------------------------------- Iteration    1(   6)  ---------------------------------------


    EDDIAG:  cpu time    0.1278: real time    0.1279
  RMM-DIIS:  cpu time    0.2374: real time    0.2377
    ORTHCH:  cpu time    0.0090: real time    0.0090
       DOS:  cpu time    0.0029: real time    0.0029
    --------------------------------------------
      LOOP:  cpu time    0.3839: real time    0.4370

 eigenvalue-minimisations  :  6271
 total energy-change (2. order) :-0.7558731E-07  (-0.7565749E-07)
 number of electron       8.0000003 magnetization 
 augmentation part        8.0000003 magnetization 

 Free energy of the ion-electron system (eV)
  ---------------------------------------------------
  alpha Z        PSCENC =         6.67624893
  Ewald energy   TEWEN  =      -213.84743004
  -Hartree energ DENC   =       -25.54878675
  -exchange      EXHF   =         0.00000000
  -V(xc)+E(xc)   XCENC  =       -66.88262928
  PAW double counting   =       532.69522183     -452.39149593
  entropy T*S    EENTRO =        -0.00172261
  eigenvalues    EBANDS =       -10.24449019
  atomic energy  EATOM  =       223.97621261
  Solvation  Ediel_sol  =         0.00000000
  ---------------------------------------------------
  free energy    TOTEN  =        -5.56887143 eV

  energy without entropy =       -5.56714882  energy(sigma->0) =       -5.56801012


--------------------------------------------------------------------------------------------------------




 average (electrostatic) potential at core
  the test charge radii are     1.4837  1.0621
  (the norm of the test charge is              1.0000)
       1 -39.0470       2 -50.7976
 
 
 
 E-fermi :   3.2991     XC(G=0):  -8.8397     alpha+bet : -8.8632


 k-point     1 :       0.0000    0.0000    0.0000
  band No.  band energies     occupation 
      1      -8.5440      2.00000
      2       3.0928      2.00000
      3       3.2620      1.70561
      4       3.2620      1.70561
      5       3.2620      1.70560
      6       7.2109      0.00000
      7       7.2109      0.00000
      8       7.2109      0.00000
      9      10.7876      0.00000
     10      12.7781      0.00000
     11      12.7781      0.00000
     12      13.6430      0.00000
     13      13.6430      0.00000
     14      13.6430      0.00000
     15      16.2027      0.00000
     16      24.6255      0.00000
     17      24.6258      0.00000
     18      24.6258      0.00000
     19      25.7586      0.00000
     20      25.7877      0.00000

 k-point     2 :       0.0102    0.0000    0.0102
  band No.  band energies     occupation 
      1      -8.5428      2.00000
      2       3.0017      2.00000
      3       3.2577      1.75815
      4       3.2577      1.75815
      5       3.3531      0.12640
      6       7.2047      0.00000
      7       7.2168      0.00000
      8       7.2168      0.00000
      9      10.7971      0.00000
     10      12.7379      0.00000
     11      12.7792      0.00000
     12      13.6462      0.00000
     13      13.6462      0.00000
     14      13.6766      0.00000
     15      16.2170      0.00000
     16      24.5807      0.00000
     17      24.5813      0.00000
     18      24.6232      0.00000
     19      25.5868      0.00000
     20      25.7269      0.00000

 k-point     3 :       0.0204    0.0000    0.0204
  band No.  band energies     occupation 
      1      -8.5391      2.00000
      2       2.8581      2.00000
      3       3.2449      1.87479
      4       3.2449      1.87479
      5       3.4967      0.00000
      6       7.1862      0.00000
      7       7.2342      0.00000
      8       7.2342      0.00000
      9      10.8255      0.00000
     10      12.6328      0.00000
     11      12.7825      0.00000
     12      13.6557      0.00000
     13      13.6557      0.00000
     14      13.7618      0.00000
     15      16.2598      0.00000
     16      24.4597      0.00000
     17      24.4600      0.00000
     18      24.6153      0.00000
     19      25.2744      0.00000
     20      25.6108      0.00000

 k-point     4 :       0.0306    0.0000    0.0306
  band No.  band energies     occupation 
      1      -8.5329      2.00000
      2       2.7081      2.00000
      3       3.2238      1.96682
      4       3.2238      1.96682
      5       3.6466      0.00000
      6       7.1561      0.00000
      7       7.2629      0.00000
      8       7.2629      0.00000
      9      10.8719      0.00000
     10      12.4895      0.00000
     11      12.7881      0.00000
     12      13.6716      0.00000
     13      13.6716      0.00000
     14      13.8724      0.00000
     15      16.3311      0.00000
     16      24.2882      0.00000
     17      24.2885      0.00000
     18      24.5999      0.00000
     19      25.0179      0.00000
     20      25.5084      0.00000

 k-point     5 :       0.0408    0.0000    0.0408
  band No.  band energies     occupation 
      1      -8.5242      2.00000
      2       2.5566      2.00000
      3       3.1948      1.99681
      4       3.1948      1.99681
      5       3.7978      0.00000
      6       7.1153      0.00000
      7       7.3025      0.00000
      8       7.3025      0.00000
      9      10.9353      0.00000
     10      12.3264      0.00000
     11      12.7959      0.00000
[...]
      3       0.2209      2.00000
      4       2.0327      2.00000
      5       5.8685      0.00000
      6       8.3223      0.00000
      7       9.0346      0.00000
      8       9.0856      0.00000
      9      11.5551      0.00000
     10      12.2008      0.00000
     11      15.2332      0.00000
     12      15.4118      0.00000
     13      16.4817      0.00000
     14      18.9796      0.00000
     15      19.4704      0.00000
     16      20.0403      0.00000
     17      20.0650      0.00000
     18      21.7135      0.00000
     19      22.6004      0.00000
     20      23.8367      0.00000

 k-point   238 :       0.2832    0.2832    0.5663
  band No.  band energies     occupation 
      1      -7.1293      2.00000
      2      -1.9780      2.00000
      3       0.1602      2.00000
      4       1.9731      2.00000
      5       5.8486      0.00000
      6       8.3469      0.00000
      7       9.1690      0.00000
      8       9.1905      0.00000
      9      11.6498      0.00000
     10      11.9492      0.00000
     11      15.3395      0.00000
     12      15.5511      0.00000
     13      16.6933      0.00000
     14      18.8662      0.00000
     15      19.3099      0.00000
     16      19.9497      0.00000
     17      20.3026      0.00000
     18      21.6719      0.00000
     19      22.8737      0.00000
     20      23.6756      0.00000

 k-point   239 :       0.2908    0.2908    0.5816
  band No.  band energies     occupation 
      1      -7.0861      2.00000
      2      -2.0340      2.00000
      3       0.1059      2.00000
      4       1.9140      2.00000
      5       5.8237      0.00000
      6       8.3720      0.00000
      7       9.2983      0.00000
      8       9.3066      0.00000
      9      11.7013      0.00000
     10      11.7498      0.00000
     11      15.4452      0.00000
     12      15.6937      0.00000
     13      16.8999      0.00000
     14      18.7650      0.00000
     15      19.1485      0.00000
     16      19.8579      0.00000
     17      20.4976      0.00000
     18      21.6717      0.00000
     19      23.1158      0.00000
     20      23.4838      0.00000

 k-point   240 :       0.2985    0.2985    0.5969
  band No.  band energies     occupation 
      1      -7.0455      2.00000
      2      -2.0847      2.00000
      3       0.0582      2.00000
      4       1.8555      2.00000
      5       5.7946      0.00000
      6       8.3944      0.00000
      7       9.4091      0.00000
      8       9.4471      0.00000
      9      11.4621      0.00000
     10      11.8548      0.00000
     11      15.5506      0.00000
     12      15.8377      0.00000
     13      17.0930      0.00000
     14      18.6812      0.00000
     15      18.9859      0.00000
     16      19.7651      0.00000
     17      20.6305      0.00000
     18      21.7302      0.00000
     19      23.1994      0.00000
     20      23.3123      0.00000

 k-point   241 :       0.3061    0.3061    0.6122
  band No.  band energies     occupation 
      1      -7.0076      2.00000
      2      -2.1302      2.00000
      3       0.0177      2.00000
      4       1.7977      2.00000
      5       5.7620      0.00000
      6       8.4101      0.00000
      7       9.5229      0.00000
      8       9.5904      0.00000
      9      11.2373      0.00000
     10      11.9645      0.00000
     11      15.6545      0.00000
     12      15.9824      0.00000
     13      17.2617      0.00000
     14      18.6213      0.00000
     15      18.8220      0.00000
     16      19.6719      0.00000
     17      20.6975      0.00000
     18      21.8476      0.00000
     19      23.1059      0.00000
     20      23.1711      0.00000

 k-point   242 :       0.3138    0.3138    0.6276
  band No.  band energies     occupation 
      1      -6.9727      2.00000
      2      -2.1709      2.00000
      3      -0.0154      2.00000
      4       1.7409      2.00000
      5       5.7265      0.00000
      6       8.4140      0.00000
      7       9.6396      0.00000
      8       9.7360      0.00000
      9      11.0327      0.00000
     10      12.0787      0.00000
     11      15.7551      0.00000
     12      16.1279      0.00000
     13      17.3944      0.00000
     14      18.5921      0.00000
     15      18.6566      0.00000
     16      19.5781      0.00000
     17      20.7183      0.00000
     18      21.9942      0.00000
     19      22.9294      0.00000
     20      23.0741      0.00000

 k-point   243 :       0.3214    0.3214    0.6429
  band No.  band energies     occupation 
      1      -6.9407      2.00000
      2      -2.2072      2.00000
      3      -0.0407      2.00000
      4       1.6852      2.00000
      5       5.6889      0.00000
      6       8.4003      0.00000
      7       9.7591      0.00000
      8       9.8834      0.00000
      9      10.8549      0.00000
     10      12.1970      0.00000
     11      15.8498      0.00000
     12      16.2741      0.00000
     13      17.4831      0.00000
     14      18.4897      0.00000
     15      18.5957      0.00000
     16      19.4836      0.00000
     17      20.7219      0.00000
     18      22.1207      0.00000
     19      22.7331      0.00000
     20      23.0419      0.00000

 k-point   244 :       0.3291    0.3291    0.6582
  band No.  band energies     occupation 
      1      -6.9118      2.00000
      2      -2.2395      2.00000
      3      -0.0577      2.00000
      4       1.6308      2.00000
      5       5.6498      0.00000
      6       8.3628      0.00000
      7       9.8815      0.00000
      8      10.0317      0.00000
      9      10.7113      0.00000
     10      12.3192      0.00000
     11      15.9352      0.00000
     12      16.4208      0.00000
     13      17.5303      0.00000
     14      18.3212      0.00000
     15      18.6227      0.00000
     16      19.3884      0.00000
     17      20.7327      0.00000
     18      22.1798      0.00000
     19      22.5356      0.00000
     20      23.1228      0.00000

 k-point   245 :       0.3367    0.3367    0.6735
  band No.  band energies     occupation 
      1      -6.8860      2.00000
      2      -2.2681      2.00000
      3      -0.0662      2.00000
      4       1.5777      2.00000
      5       5.6095      0.00000
      6       8.2963      0.00000
      7      10.0066      0.00000
      8      10.1785      0.00000
      9      10.6091      0.00000
     10      12.4450      0.00000
     11      16.0074      0.00000
     12      16.5678      0.00000
     13      17.5496      0.00000
     14      18.1509      0.00000
     15      18.6538      0.00000
     16      19.2920      0.00000
     17      20.7690      0.00000
     18      22.1660      0.00000
     19      22.3439      0.00000
     20      23.0897      0.00000

 k-point   246 :       0.3444    0.3444    0.6888
  band No.  band energies     occupation 
      1      -6.8632      2.00000
      2      -2.2936      2.00000
      3      -0.0660      2.00000
      4       1.5262      2.00000
      5       5.5687      0.00000
      6       8.1985      0.00000
      7      10.1343      0.00000
      8      10.3153      0.00000
      9      10.5591      0.00000
     10      12.5742      0.00000
     11      16.0615      0.00000
     12      16.7144      0.00000
     13      17.5581      0.00000
     14      17.9790      0.00000
     15      18.6693      0.00000
     16      19.1944      0.00000
     17      20.8422      0.00000
     18      22.1106      0.00000
     19      22.1608      0.00000
     20      22.8813      0.00000

 k-point   247 :       0.3520    0.3520    0.7041
  band No.  band energies     occupation 
      1      -6.8434      2.00000
      2      -2.3164      2.00000
      3      -0.0569      2.00000
      4       1.4764      2.00000
      5       5.5278      0.00000
      6       8.0703      0.00000
      7      10.2645      0.00000
      8      10.4118      0.00000
      9      10.5906      0.00000
     10      12.7063      0.00000
     11      16.0930      0.00000
     12      16.8597      0.00000
     13      17.5705      0.00000
     14      17.8055      0.00000
     15      18.6582      0.00000
     16      19.0952      0.00000
     17      20.9549      0.00000
     18      21.9834      0.00000
     19      22.0417      0.00000
     20      22.7116      0.00000

 k-point   248 :       0.3597    0.3597    0.7194
  band No.  band energies     occupation 
      1      -6.8263      2.00000
      2      -2.3370      2.00000
      3      -0.0388      2.00000
      4       1.4284      2.00000
      5       5.4870      0.00000
      6       7.9158      0.00000
      7      10.3971      0.00000
      8      10.4592      0.00000
      9      10.7079      0.00000
     10      12.8410      0.00000
     11      16.0986      0.00000
     12      17.0017      0.00000
     13      17.5959      0.00000
     14      17.6305      0.00000
     15      18.6204      0.00000
     16      18.9941      0.00000
     17      21.0983      0.00000
     18      21.8155      0.00000
     19      21.9764      0.00000
     20      22.5195      0.00000

 k-point   249 :       0.3673    0.3673    0.7347
  band No.  band energies     occupation 
      1      -6.8120      2.00000
      2      -2.3556      2.00000
      3      -0.0119      2.00000
      4       1.3823      2.00000
      5       5.4466      0.00000
      6       7.7409      0.00000
      7      10.5076      0.00000
      8      10.5319      0.00000
      9      10.8550      0.00000
     10      12.9781      0.00000
     11      16.0780      0.00000
     12      17.1369      0.00000
     13      17.4543      0.00000
     14      17.6374      0.00000
     15      18.5648      0.00000
     16      18.8908      0.00000
     17      21.2537      0.00000
     18      21.6575      0.00000
     19      21.9329      0.00000
     20      22.3513      0.00000

 k-point   250 :       0.3750    0.3750    0.7500
  band No.  band energies     occupation 
      1      -6.8001      2.00000
      2      -2.3727      2.00000
      3       0.0237      2.00000
      4       1.3382      2.00000
      5       5.4070      0.00000
      6       7.5513      0.00000
      7      10.5727      0.00000
      8      10.6686      0.00000
      9      11.0100      0.00000
     10      13.1172      0.00000
     11      16.0333      0.00000
     12      17.2581      0.00000
     13      17.2772      0.00000
     14      17.6937      0.00000
     15      18.5068      0.00000
     16      18.7852      0.00000
     17      21.3814      0.00000
     18      21.5083      0.00000
     19      21.9410      0.00000
     20      22.1875      0.00000


--------------------------------------------------------------------------------------------------------


 soft charge-density along one line, spin component           1
         0         1         2         3         4         5         6         7         8         9
 total charge-density along one line
 
 pseudopotential strength for first ion, spin component:           1
 21.446   0.000  25.656   0.000   0.000   0.000   0.000   0.000   0.000   0.000   0.000   0.000   0.000   0.000   0.000   0.000
 25.656   0.000  30.706   0.000   0.000   0.000   0.000   0.000   0.000   0.000   0.000   0.000   0.000   0.000   0.000   0.000
  0.000   0.000   0.000   0.000   3.950   0.000  -0.000   0.000  -0.000   0.000   6.785   0.000  -0.000   0.000  -0.000   0.000
  0.000   0.000   0.000   0.000  -0.000   0.000   3.950   0.000  -0.000   0.000  -0.000   0.000   6.785   0.000  -0.000   0.000
  0.000   0.000   0.000   0.000  -0.000   0.000  -0.000   0.000   3.950   0.000  -0.000   0.000  -0.000   0.000   6.785   0.000
  0.000   0.000   0.000   0.000   6.785   0.000  -0.000   0.000  -0.000   0.000  11.712   0.000  -0.000   0.000  -0.000   0.000
  0.000   0.000   0.000   0.000  -0.000   0.000   6.785   0.000  -0.000   0.000  -0.000   0.000  11.712   0.000  -0.000   0.000
  0.000   0.000   0.000   0.000  -0.000   0.000  -0.000   0.000   6.785   0.000  -0.000   0.000  -0.000   0.000  11.712   0.000
 -0.000   0.000  -0.000   0.000   0.000   0.000   0.004   0.000   0.000   0.000   0.000   0.000   0.006   0.000   0.000   0.000
 -0.000   0.000  -0.000   0.000   0.000   0.000   0.000   0.000   0.004   0.000   0.000   0.000   0.000   0.000   0.006   0.000
 -0.000   0.000  -0.000   0.000  -0.000   0.000   0.000   0.000  -0.000   0.000  -0.000   0.000   0.000   0.000  -0.000   0.000
 -0.000   0.000  -0.000   0.000   0.004   0.000   0.000   0.000   0.000   0.000   0.006   0.000   0.000   0.000   0.000   0.000
 -0.000   0.000  -0.000   0.000  -0.000   0.000   0.000   0.000   0.000   0.000  -0.000   0.000   0.000   0.000   0.000   0.000
 total augmentation occupancy for first ion, spin component:           1
  2.000   0.000   0.000   0.000   0.000   0.000   0.000   0.000   0.000   0.000   0.000   0.000   0.000
  0.000   0.000   0.000   0.000   0.000   0.000   0.000   0.000   0.000   0.000   0.000   0.000   0.000
  0.000   0.000   0.333   0.000   0.000   0.000   0.000   0.000   0.000   0.000   0.000   0.000   0.000
  0.000   0.000   0.000   0.333   0.000   0.000   0.000   0.000   0.000   0.000   0.000   0.000   0.000
  0.000   0.000   0.000   0.000   0.333   0.000   0.000   0.000   0.000   0.000   0.000   0.000   0.000
  0.000   0.000   0.000   0.000   0.000   0.000   0.000   0.000   0.000   0.000   0.000   0.000   0.000
  0.000   0.000   0.000   0.000   0.000   0.000   0.000   0.000   0.000   0.000   0.000   0.000   0.000
  0.000   0.000   0.000   0.000   0.000   0.000   0.000   0.000   0.000   0.000   0.000   0.000   0.000
  0.000   0.000   0.000   0.000   0.000   0.000   0.000   0.000   0.000   0.000   0.000   0.000   0.000
  0.000   0.000   0.000   0.000   0.000   0.000   0.000   0.000   0.000   0.000   0.000   0.000   0.000
  0.000   0.000   0.000   0.000   0.000   0.000   0.000   0.000   0.000   0.000   0.000   0.000   0.000
  0.000   0.000   0.000   0.000   0.000   0.000   0.000   0.000   0.000   0.000   0.000   0.000   0.000
  0.000   0.000   0.000   0.000   0.000   0.000   0.000   0.000   0.000   0.000   0.000   0.000   0.000


------------------------ aborting loop because EDIFF is reached ----------------------------------------


 


 total charge     
 
# of ion     s       p       d       tot
----------------------------------------
  1        1.173   1.304   0.265   2.742
  2        1.223   1.689   0.016   2.928
------------------------------------------------
tot        2.396   2.992   0.281   5.670
 
    CHARGE:  cpu time    0.0253: real time    0.0263
    FORLOC:  cpu time    0.0088: real time    0.0088
    FORNL :  cpu time    0.0632: real time    0.0635
    STRESS:  cpu time    3.4982: real time    3.4987
    FORCOR:  cpu time    0.0745: real time    0.0747
    FORHAR:  cpu time    0.0211: real time    0.0213
    OFIELD:  cpu time    0.0003: real time    0.0004

  FORCE on cell =-STRESS in cart. coord.  units (eV):
  Direction    XX          YY          ZZ          XY          YZ          ZX
  --------------------------------------------------------------------------------------
  Alpha Z     6.67625     6.67625     6.67625
  Ewald     -71.28251   -71.28251   -71.28251    -0.00000     0.00000     0.00000
  Hartree     9.29543     9.29543     9.29543     0.00000     0.00000     0.00000
  E(xc)     -31.50286   -31.50286   -31.50286    -0.00000    -0.00000    -0.00000
  Local     -34.41375   -34.41375   -34.41375     0.00002     0.00002     0.00002
  n-local    71.21459    67.95487    70.23337    -1.80002    -0.74888    -0.97479
  augment    -8.20944    -8.20944    -8.20944    -0.00002    -0.00002    -0.00002
  Kinetic    66.46300    62.03188    66.80371    -2.89984    -1.64116    -1.93925
  Fock        0.00000     0.00000     0.00000     0.00000     0.00000     0.00000
  -------------------------------------------------------------------------------------
  Total       5.46359     5.46359     5.46359     0.00000    -0.00000     0.00000
  in kB     157.46177   157.46177   157.46177     0.00000    -0.00000     0.00000
  external pressure =      157.46 kB  Pullay stress =        0.00 kB


 VOLUME and BASIS-vectors are now :
 -----------------------------------------------------------------------------
  energy-cutoff  :      400.00
  volume of cell :       55.59
      direct lattice vectors                 reciprocal lattice vectors
     0.000000000  3.029200000  3.029200000    -0.165060082  0.165060082  0.165060082
     3.029200000  0.000000000  3.029200000     0.165060082 -0.165060082  0.165060082
     3.029200000  3.029200000  0.000000000     0.165060082  0.165060082 -0.165060082

  length of vectors
     4.283935723  4.283935723  4.283935723     0.285892448  0.285892448  0.285892448


 FORCES acting on ions
    electron-ion (+dipol)            ewald-force                    non-local-force                 convergence-correction
 -----------------------------------------------------------------------------------------------
   -.488E-06 -.488E-06 -.488E-06   0.134E-14 0.995E-15 0.341E-14   0.212E-15 0.171E-15 0.883E-16   0.367E-09 0.367E-09 0.367E-09
   0.355E-06 0.355E-06 0.355E-06   -.131E-14 -.620E-15 -.337E-14   0.300E-16 0.568E-17 0.452E-16   0.290E-08 0.290E-08 0.290E-08
 -----------------------------------------------------------------------------------------------
   -.132E-06 -.132E-06 -.132E-06   0.300E-16 0.375E-15 0.444E-16   0.242E-15 0.176E-15 0.133E-15   0.327E-08 0.327E-08 0.327E-08
 
 
 POSITION                                       TOTAL-FORCE (eV/Angst)
 -----------------------------------------------------------------------------------
      0.00000      0.00000      0.00000         0.000000     -0.000000     -0.000000
      1.51460      1.51460      1.51460        -0.000000      0.000000      0.000000
 -----------------------------------------------------------------------------------
    total drift:                               -0.000000     -0.000000     -0.000000


--------------------------------------------------------------------------------------------------------



  FREE ENERGIE OF THE ION-ELECTRON SYSTEM (eV)
  ---------------------------------------------------
  free  energy   TOTEN  =        -5.56887143 eV

  energy  without entropy=       -5.56714882  energy(sigma->0) =       -5.56801012
 


--------------------------------------------------------------------------------------------------------


    POTLOK:  cpu time    0.7561: real time    0.7774


--------------------------------------------------------------------------------------------------------


     LOOP+:  cpu time    9.5285: real time   10.7694
    4ORBIT:  cpu time    0.0000: real time    0.0000
 


 total charge     
 
# of ion     s       p       d       tot
----------------------------------------
  1        1.173   1.304   0.265   2.742
  2        1.223   1.689   0.016   2.928
------------------------------------------------
tot        2.396   2.992   0.281   5.670
 

 total amount of memory used by VASP on root node   110256. kBytes
========================================================================

   base      :      30000. kBytes
   nonl-proj :      53905. kBytes
   fftplans  :       1959. kBytes
   grid      :       3096. kBytes
   one-center:         16. kBytes
   wavefun   :      21280. kBytes
 
  
  
 General timing and accounting informations for this job:
 ========================================================
  
                  Total CPU time used (sec):       17.942
                            User time (sec):       13.541
                          System time (sec):        4.401
                         Elapsed time (sec):      145.265
  
                   Maximum memory used (kb):      227152.
                   Average memory used (kb):           0.
  
                          Minor page faults:        34434
                          Major page faults:            9
                 Voluntary context switches:       169971
