PROCAR lm decomposed
# of k-points:  250         # of bands:  20         # of ions:   2

 k-point    1 :    0.00000000 0.00000000 0.00000000     weight = 0.00400000

band   1 # energy   -8.54404271 # occ.  2.00000000
 
ion      s     py     pz     px    dxy    dyz    dz2    dxz    dx2    tot
  1  0.278  0.000  0.000  0.000  0.000  0.000  0.000  0.000  0.000  0.278
  2  0.451  0.000  0.000  0.000  0.000  0.000  0.000  0.000  0.000  0.451
tot  0.729  0.000  0.000  0.000  0.000  0.000  0.000  0.000  0.000  0.729
 
band   2 # energy    3.09278910 # occ.  1.99999999
 
ion      s     py     pz     px    dxy    dyz    dz2    dxz    dx2    tot
  1  0.436  0.000  0.000  0.000  0.000  0.000  0.000  0.000  0.000  0.436
  2  0.315  0.000  0.000  0.000  0.000  0.000  0.000  0.000  0.000  0.315
tot  0.751  0.000  0.000  0.000  0.000  0.000  0.000  0.000  0.000  0.751
 
band   3 # energy    3.26201857 # occ.  1.70560695
 
ion      s     py     pz     px    dxy    dyz    dz2    dxz    dx2    tot
  1  0.000  0.018  0.033  0.074  0.032  0.072  0.000  0.017  0.000  0.247
  2  0.000  0.065  0.120  0.269  0.001  0.001  0.000  0.000  0.000  0.456
tot  0.000  0.084  0.153  0.343  0.033  0.073  0.000  0.018  0.000  0.704
 
band   4 # energy    3.26201857 # occ.  1.70560694
 
ion      s     py     pz     px    dxy    dyz    dz2    dxz    dx2    tot
  1  0.000  0.066  0.051  0.009  0.049  0.009  0.000  0.063  0.000  0.247
  2  0.000  0.237  0.184  0.033  0.001  0.000  0.000  0.001  0.000  0.456
tot  0.000  0.303  0.235  0.042  0.050  0.009  0.000  0.065  0.000  0.704
 
band   5 # energy    3.26201915 # occ.  1.70559943
 
ion      s     py     pz     px    dxy    dyz    dz2    dxz    dx2    tot
  1  0.000  0.042  0.042  0.042  0.040  0.041  0.000  0.041  0.000  0.247
  2  0.000  0.152  0.150  0.153  0.001  0.001  0.000  0.001  0.000  0.456
tot  0.000  0.194  0.192  0.195  0.041  0.042  0.000  0.041  0.000  0.704
 
band   6 # energy    7.21093004 # occ.  0.00000000
 
ion      s     py     pz     px    dxy    dyz    dz2    dxz    dx2    tot
  1  0.000  0.195  0.199  0.195  0.004  0.004  0.000  0.004  0.000  0.601
  2  0.000  0.007  0.007  0.007  0.020  0.020  0.000  0.020  0.000  0.081
tot  0.000  0.202  0.206  0.201  0.025  0.024  0.000  0.024  0.000  0.682
 
band   7 # energy    7.21093014 # occ.  0.00000000
 
ion      s     py     pz     px    dxy    dyz    dz2    dxz    dx2    tot
  1  0.000  0.354  0.017  0.218  0.000  0.005  0.000  0.008  0.000  0.601
  2  0.000  0.012  0.001  0.007  0.002  0.022  0.000  0.036  0.000  0.081
tot  0.000  0.366  0.018  0.225  0.002  0.027  0.000  0.044  0.000  0.682
 
band   8 # energy    7.21093014 # occ.  0.00000000
 
ion      s     py     pz     px    dxy    dyz    dz2    dxz    dx2    tot
  1  0.000  0.040  0.373  0.176  0.008  0.004  0.000  0.001  0.000  0.601
  2  0.000  0.001  0.013  0.006  0.038  0.018  0.000  0.004  0.000  0.081
tot  0.000  0.041  0.385  0.182  0.046  0.022  0.000  0.005  0.000  0.682
 
band   9 # energy   10.78757472 # occ.  0.00000000
 
ion      s     py     pz     px    dxy    dyz    dz2    dxz    dx2    tot
  1  0.289  0.000  0.000  0.000  0.000  0.000  0.000  0.000  0.000  0.289
  2  0.006  0.000  0.000  0.000  0.000  0.000  0.000  0.000  0.000  0.006
tot  0.295  0.000  0.000  0.000  0.000  0.000  0.000  0.000  0.000  0.295
 
band  10 # energy   12.77807127 # occ.  0.00000000
 
ion      s     py     pz     px    dxy    dyz    dz2    dxz    dx2    tot
  1  0.000  0.000  0.000  0.000  0.000  0.000  0.294  0.000  0.237  0.530
  2  0.000  0.000  0.000  0.000  0.000  0.000  0.082  0.000  0.066  0.148
tot  0.000  0.000  0.000  0.000  0.000  0.000  0.375  0.000  0.303  0.678
 
band  11 # energy   12.77807127 # occ.  0.00000000
 
ion      s     py     pz     px    dxy    dyz    dz2    dxz    dx2    tot
  1  0.000  0.000  0.000  0.000  0.000  0.000  0.237  0.000  0.294  0.530
  2  0.000  0.000  0.000  0.000  0.000  0.000  0.066  0.000  0.082  0.148
tot  0.000  0.000  0.000  0.000  0.000  0.000  0.303  0.000  0.375  0.678
 
band  12 # energy   13.64303509 # occ.  0.00000000
 
ion      s     py     pz     px    dxy    dyz    dz2    dxz    dx2    tot
  1  0.000  0.016  0.016  0.016  0.060  0.060  0.000  0.061  0.000  0.229
  2  0.000  0.005  0.005  0.005  0.004  0.004  0.000  0.004  0.000  0.028
tot  0.000  0.021  0.021  0.021  0.064  0.064  0.000  0.065  0.000  0.256
 
band  13 # energy   13.64303510 # occ.  0.00000000
 
ion      s     py     pz     px    dxy    dyz    dz2    dxz    dx2    tot
  1  0.000  0.000  0.023  0.025  0.086  0.093  0.000  0.001  0.000  0.229
  2  0.000  0.000  0.007  0.008  0.006  0.007  0.000  0.000  0.000  0.028
tot  0.000  0.000  0.030  0.033  0.093  0.100  0.000  0.001  0.000  0.256
 
band  14 # energy   13.64303510 # occ.  0.00000000
 
ion      s     py     pz     px    dxy    dyz    dz2    dxz    dx2    tot
  1  0.000  0.032  0.009  0.007  0.034  0.028  0.000  0.118  0.000  0.229
  2  0.000  0.010  0.003  0.002  0.003  0.002  0.000  0.009  0.000  0.028
tot  0.000  0.041  0.012  0.010  0.037  0.030  0.000  0.127  0.000  0.256
 
band  15 # energy   16.20265180 # occ.  0.00000000
 
ion      s     py     pz     px    dxy    dyz    dz2    dxz    dx2    tot
  1  0.045  0.000  0.000  0.000  0.000  0.000  0.000  0.000  0.000  0.045
  2  0.023  0.000  0.000  0.000  0.000  0.000  0.000  0.000  0.000  0.023
tot  0.068  0.000  0.000  0.000  0.000  0.000  0.000  0.000  0.000  0.068
 
band  16 # energy   24.62548482 # occ.  0.00000000
 
ion      s     py     pz     px    dxy    dyz    dz2    dxz    dx2    tot
  1  0.000  0.002  0.000  0.002  0.111  0.696  0.000  0.505  0.000  1.317
  2  0.000  0.023  0.005  0.032  0.014  0.085  0.000  0.062  0.000  0.221
tot  0.000  0.025  0.005  0.034  0.125  0.781  0.000  0.567  0.000  1.537
 
band  17 # energy   24.62576848 # occ.  0.00000000
 
ion      s     py     pz     px    dxy    dyz    dz2    dxz    dx2    tot
  1  0.000  0.001  0.003  0.000  0.897  0.067  0.000  0.347  0.000  1.316
  2  0.000  0.016  0.041  0.003  0.110  0.008  0.000  0.042  0.000  0.221
tot  0.000  0.017  0.044  0.004  1.007  0.075  0.000  0.389  0.000  1.537
 
band  18 # energy   24.62583902 # occ.  0.00000000
 
ion      s     py     pz     px    dxy    dyz    dz2    dxz    dx2    tot
  1  0.000  0.002  0.001  0.002  0.303  0.549  0.000  0.459  0.000  1.315
  2  0.000  0.021  0.014  0.025  0.037  0.067  0.000  0.057  0.000  0.221
tot  0.000  0.022  0.015  0.027  0.340  0.616  0.000  0.516  0.000  1.536
 
band  19 # energy   25.75862138 # occ.  0.00000000
 
ion      s     py     pz     px    dxy    dyz    dz2    dxz    dx2    tot
  1  0.000  0.001  0.000  0.000  0.000  0.000  0.922  0.000  0.195  1.119
  2  0.000  0.001  0.000  0.000  0.000  0.000  0.193  0.000  0.041  0.236
tot  0.000  0.001  0.000  0.001  0.000  0.000  1.115  0.001  0.236  1.354
 
band  20 # energy   25.78767113 # occ.  0.00000000
 
ion      s     py     pz     px    dxy    dyz    dz2    dxz    dx2    tot
  1  0.000  0.000  0.004  0.001  0.000  0.000  0.132  0.000  0.582  0.720
  2  0.000  0.000  0.004  0.001  0.003  0.001  0.027  0.000  0.122  0.158
tot  0.000  0.000  0.008  0.001  0.003  0.001  0.160  0.000  0.704  0.878
 

 k-point    2 :    0.01020408 0.00000000 0.01020408     weight = 0.00400000

band   1 # energy   -8.54280869 # occ.  2.00000000
 
ion      s     py     pz     px    dxy    dyz    dz2    dxz    dx2    tot
  1  0.277  0.000  0.000  0.000  0.000  0.000  0.000  0.000  0.000  0.278
  2  0.451  0.000  0.000  0.000  0.000  0.000  0.000  0.000  0.000  0.451
tot  0.729  0.000  0.000  0.000  0.000  0.000  0.000  0.000  0.000  0.729
 
band   2 # energy    3.00167528 # occ.  2.00000000
 
ion      s     py     pz     px    dxy    dyz    dz2    dxz    dx2    tot
  1  0.326  0.033  0.000  0.000  0.000  0.000  0.000  0.032  0.000  0.390
  2  0.234  0.115  0.000  0.000  0.000  0.000  0.000  0.001  0.000  0.350
tot  0.560  0.148  0.000  0.000  0.000  0.000  0.000  0.033  0.000  0.740
 
band   3 # energy    3.25771072 # occ.  1.75815089
 
ion      s     py     pz     px    dxy    dyz    dz2    dxz    dx2    tot
  1  0.000  0.000  0.064  0.063  0.061  0.060  0.000  0.000  0.000  0.248
  2  0.000  0.000  0.228  0.226  0.001  0.001  0.000  0.000  0.000  0.456
tot  0.000  0.000  0.291  0.289  0.062  0.061  0.000  0.000  0.000  0.703
 
band   4 # energy    3.25771111 # occ.  1.75814653
 
ion      s     py     pz     px    dxy    dyz    dz2    dxz    dx2    tot
  1  0.000  0.000  0.063  0.064  0.060  0.061  0.000  0.000  0.000  0.248
  2  0.000  0.000  0.226  0.228  0.001  0.001  0.000  0.000  0.000  0.456
tot  0.000  0.000  0.289  0.291  0.061  0.062  0.000  0.000  0.000  0.703
 
band   5 # energy    3.35312887 # occ.  0.12639953
 
ion      s     py     pz     px    dxy    dyz    dz2    dxz    dx2    tot
  1  0.110  0.093  0.000  0.000  0.000  0.000  0.000  0.089  0.000  0.292
  2  0.081  0.339  0.000  0.000  0.000  0.000  0.000  0.001  0.000  0.422
tot  0.191  0.432  0.000  0.000  0.000  0.000  0.000  0.091  0.000  0.714
 
band   6 # energy    7.20469719 # occ.  0.00000000
 
ion      s     py     pz     px    dxy    dyz    dz2    dxz    dx2    tot
  1  0.001  0.587  0.000  0.000  0.000  0.000  0.000  0.013  0.000  0.600
  2  0.000  0.020  0.000  0.000  0.000  0.000  0.000  0.060  0.000  0.081
tot  0.001  0.607  0.000  0.000  0.000  0.000  0.000  0.073  0.000  0.681
 
band   7 # energy    7.21676426 # occ.  0.00000000
 
ion      s     py     pz     px    dxy    dyz    dz2    dxz    dx2    tot
  1  0.000  0.000  0.287  0.300  0.006  0.007  0.000  0.000  0.000  0.600
  2  0.000  0.000  0.010  0.011  0.029  0.031  0.000  0.000  0.000  0.081
tot  0.000  0.000  0.297  0.312  0.035  0.038  0.000  0.000  0.000  0.682
 
band   8 # energy    7.21676433 # occ.  0.00000000
 
ion      s     py     pz     px    dxy    dyz    dz2    dxz    dx2    tot
  1  0.000  0.000  0.300  0.287  0.007  0.006  0.000  0.000  0.000  0.600
  2  0.000  0.000  0.011  0.010  0.031  0.029  0.000  0.000  0.000  0.081
tot  0.000  0.000  0.312  0.297  0.038  0.035  0.000  0.000  0.000  0.682
 
band   9 # energy   10.79710678 # occ.  0.00000000
 
ion      s     py     pz     px    dxy    dyz    dz2    dxz    dx2    tot
  1  0.288  0.002  0.000  0.000  0.000  0.000  0.000  0.000  0.000  0.290
  2  0.006  0.000  0.000  0.000  0.000  0.000  0.000  0.000  0.000  0.006
tot  0.294  0.002  0.000  0.000  0.000  0.000  0.000  0.000  0.000  0.296
 
band  10 # energy   12.73788787 # occ.  0.00000000
 
ion      s     py     pz     px    dxy    dyz    dz2    dxz    dx2    tot
  1  0.000  0.002  0.000  0.000  0.000  0.000  0.126  0.009  0.378  0.515
  2  0.000  0.000  0.000  0.000  0.000  0.000  0.035  0.001  0.105  0.142
tot  0.000  0.002  0.000  0.000  0.000  0.000  0.161  0.010  0.484  0.657
 
band  11 # energy   12.77918681 # occ.  0.00000000
 
ion      s     py     pz     px    dxy    dyz    dz2    dxz    dx2    tot
  1  0.000  0.000  0.000  0.000  0.000  0.000  0.398  0.000  0.133  0.530
  2  0.000  0.000  0.000  0.000  0.000  0.000  0.111  0.000  0.037  0.148
tot  0.000  0.000  0.000  0.000  0.000  0.000  0.508  0.000  0.169  0.678
 
band  12 # energy   13.64621359 # occ.  0.00000000
 
ion      s     py     pz     px    dxy    dyz    dz2    dxz    dx2    tot
  1  0.000  0.000  0.024  0.024  0.090  0.090  0.000  0.000  0.000  0.229
  2  0.000  0.000  0.007  0.007  0.007  0.007  0.000  0.000  0.000  0.028
tot  0.000  0.000  0.031  0.031  0.097  0.097  0.000  0.000  0.000  0.257
 
band  13 # energy   13.64621360 # occ.  0.00000000
 
ion      s     py     pz     px    dxy    dyz    dz2    dxz    dx2    tot
  1  0.000  0.000  0.024  0.024  0.090  0.090  0.000  0.000  0.000  0.229
  2  0.000  0.000  0.007  0.007  0.007  0.007  0.000  0.000  0.000  0.028
tot  0.000  0.000  0.031  0.031  0.097  0.097  0.000  0.000  0.000  0.257
 
band  14 # energy   13.67658315 # occ.  0.00000000
 
ion      s     py     pz     px    dxy    dyz    dz2    dxz    dx2    tot
  1  0.000  0.046  0.000  0.000  0.000  0.000  0.006  0.171  0.019  0.243
  2  0.000  0.014  0.000  0.000  0.000  0.000  0.002  0.012  0.005  0.034
tot  0.000  0.060  0.000  0.000  0.000  0.000  0.008  0.183  0.025  0.276
 
band  15 # energy   16.21695021 # occ.  0.00000000
 
ion      s     py     pz     px    dxy    dyz    dz2    dxz    dx2    tot
  1  0.045  0.000  0.000  0.000  0.000  0.000  0.000  0.001  0.000  0.046
  2  0.023  0.000  0.000  0.000  0.000  0.000  0.000  0.000  0.000  0.023
tot  0.068  0.001  0.000  0.000  0.000  0.000  0.000  0.001  0.000  0.070
 
band  16 # energy   24.58073445 # occ.  0.00000000
 
ion      s     py     pz     px    dxy    dyz    dz2    dxz    dx2    tot
  1  0.000  0.000  0.006  0.001  1.069  0.196  0.000  0.000  0.000  1.273
  2  0.000  0.000  0.056  0.004  0.121  0.040  0.000  0.000  0.000  0.220
tot  0.000  0.000  0.063  0.005  1.189  0.236  0.000  0.000  0.000  1.493
 
band  17 # energy   24.58133944 # occ.  0.00000000
 
ion      s     py     pz     px    dxy    dyz    dz2    dxz    dx2    tot
  1  0.000  0.000  0.001  0.006  0.197  1.067  0.000  0.000  0.000  1.272
  2  0.000  0.000  0.004  0.055  0.039  0.122  0.000  0.000  0.000  0.220
tot  0.000  0.000  0.005  0.061  0.237  1.189  0.000  0.000  0.000  1.491
 
band  18 # energy   24.62322130 # occ.  0.00000000
 
ion      s     py     pz     px    dxy    dyz    dz2    dxz    dx2    tot
  1  0.000  0.005  0.000  0.000  0.000  0.000  0.000  1.308  0.002  1.316
  2  0.000  0.061  0.000  0.000  0.000  0.000  0.000  0.159  0.000  0.220
tot  0.000  0.066  0.000  0.000  0.000  0.000  0.001  1.467  0.002  1.536
 
band  19 # energy   25.58677614 # occ.  0.00000000
 
ion      s     py     pz     px    dxy    dyz    dz2    dxz    dx2    tot
  1  0.000  0.005  0.001  0.008  0.000  0.002  0.432  0.000  0.198  0.646
  2  0.000  0.005  0.001  0.008  0.001  0.005  0.089  0.004  0.041  0.153
tot  0.000  0.010  0.002  0.017  0.001  0.007  0.520  0.004  0.239  0.799
 
band  20 # energy   25.72689673 # occ.  0.00000000
 
ion      s     py     pz     px    dxy    dyz    dz2    dxz    dx2    tot
  1  0.000  0.011  0.001  0.001  0.002  0.000  0.263  0.002  0.709  0.989
  2  0.000  0.008  0.001  0.001  0.000  0.001  0.055  0.010  0.150  0.227
tot  0.000  0.018  0.002  0.002  0.002  0.001  0.318  0.012  0.859  1.216
 

 k-point    3 :    0.02040816 0.00000000 0.02040816     weight = 0.00400000

band   1 # energy   -8.53908985 # occ.  2.00000000
 
ion      s     py     pz     px    dxy    dyz    dz2    dxz    dx2    tot
  1  0.277  0.000  0.000  0.000  0.000  0.000  0.000  0.000  0.000  0.277
  2  0.452  0.000  0.000  0.000  0.000  0.000  0.000  0.000  0.000  0.452
tot  0.729  0.000  0.000  0.000  0.000  0.000  0.000  0.000  0.000  0.729
 
band   2 # energy    2.85807354 # occ.  2.00000000
 
ion      s     py     pz     px    dxy    dyz    dz2    dxz    dx2    tot
  1  0.283  0.046  0.000  0.000  0.000  0.000  0.000  0.045  0.000  0.375
  2  0.201  0.161  0.000  0.000  0.000  0.000  0.000  0.001  0.000  0.363
tot  0.483  0.208  0.000  0.000  0.000  0.000  0.000  0.046  0.000  0.737
 
band   3 # energy    3.24488068 # occ.  1.87478964
 
ion      s     py     pz     px    dxy    dyz    dz2    dxz    dx2    tot
  1  0.000  0.000  0.064  0.064  0.060  0.060  0.000  0.000  0.000  0.249
  2  0.000  0.000  0.226  0.226  0.001  0.001  0.000  0.000  0.000  0.454
tot  0.000  0.000  0.290  0.290  0.061  0.061  0.000  0.000  0.000  0.703
 
band   4 # energy    3.24488106 # occ.  1.87478698
 
ion      s     py     pz     px    dxy    dyz    dz2    dxz    dx2    tot
  1  0.000  0.000  0.064  0.064  0.060  0.060  0.000  0.000  0.000  0.249
  2  0.000  0.000  0.226  0.226  0.001  0.001  0.000  0.000  0.000  0.454
tot  0.000  0.000  0.290  0.290  0.061  0.061  0.000  0.000  0.000  0.703
 
band   5 # energy    3.49671005 # occ.  0.00000002
 
ion      s     py     pz     px    dxy    dyz    dz2    dxz    dx2    tot
  1  0.154  0.080  0.000  0.000  0.000  0.000  0.000  0.075  0.000  0.309
  2  0.114  0.293  0.000  0.000  0.000  0.000  0.000  0.001  0.000  0.409
tot  0.268  0.373  0.000  0.000  0.000  0.000  0.000  0.076  0.000  0.717
 
band   6 # energy    7.18620886 # occ.  0.00000000
 
ion      s     py     pz     px    dxy    dyz    dz2    dxz    dx2    tot
  1  0.003  0.582  0.000  0.000  0.000  0.000  0.000  0.013  0.000  0.597
  2  0.000  0.020  0.000  0.000  0.000  0.000  0.000  0.060  0.000  0.080
tot  0.003  0.602  0.000  0.000  0.000  0.000  0.000  0.072  0.000  0.678
 
band   7 # energy    7.23417469 # occ.  0.00000000
 
ion      s     py     pz     px    dxy    dyz    dz2    dxz    dx2    tot
  1  0.000  0.000  0.290  0.295  0.007  0.007  0.000  0.000  0.000  0.599
  2  0.000  0.000  0.011  0.011  0.030  0.030  0.000  0.000  0.000  0.083
tot  0.000  0.000  0.302  0.306  0.037  0.037  0.000  0.000  0.000  0.682
 
band   8 # energy    7.23417476 # occ.  0.00000000
 
ion      s     py     pz     px    dxy    dyz    dz2    dxz    dx2    tot
  1  0.000  0.000  0.295  0.290  0.007  0.007  0.000  0.000  0.000  0.599
  2  0.000  0.000  0.011  0.011  0.030  0.030  0.000  0.000  0.000  0.083
tot  0.000  0.000  0.306  0.302  0.037  0.037  0.000  0.000  0.000  0.682
 
band   9 # energy   10.82545534 # occ.  0.00000000
 
ion      s     py     pz     px    dxy    dyz    dz2    dxz    dx2    tot
  1  0.286  0.007  0.000  0.000  0.000  0.000  0.000  0.000  0.000  0.292
  2  0.005  0.000  0.000  0.000  0.000  0.000  0.000  0.000  0.000  0.006
tot  0.291  0.007  0.000  0.000  0.000  0.000  0.000  0.000  0.000  0.299
 
band  10 # energy   12.63284757 # occ.  0.00000000
 
ion      s     py     pz     px    dxy    dyz    dz2    dxz    dx2    tot
  1  0.000  0.005  0.000  0.000  0.000  0.000  0.113  0.027  0.339  0.484
  2  0.000  0.001  0.000  0.000  0.000  0.000  0.032  0.003  0.095  0.130
tot  0.000  0.006  0.000  0.000  0.000  0.000  0.145  0.030  0.434  0.614
 
band  11 # energy   12.78253328 # occ.  0.00000000
 
ion      s     py     pz     px    dxy    dyz    dz2    dxz    dx2    tot
  1  0.000  0.000  0.000  0.000  0.000  0.000  0.397  0.000  0.132  0.530
  2  0.000  0.000  0.000  0.000  0.000  0.000  0.111  0.000  0.037  0.148
tot  0.000  0.000  0.000  0.000  0.000  0.000  0.508  0.000  0.169  0.677
 
band  12 # energy   13.65574739 # occ.  0.00000000
 
ion      s     py     pz     px    dxy    dyz    dz2    dxz    dx2    tot
  1  0.000  0.000  0.024  0.024  0.090  0.091  0.000  0.000  0.000  0.229
  2  0.000  0.000  0.007  0.007  0.007  0.007  0.000  0.000  0.000  0.028
tot  0.000  0.000  0.031  0.032  0.097  0.097  0.000  0.000  0.000  0.257
 
band  13 # energy   13.65574740 # occ.  0.00000000
 
ion      s     py     pz     px    dxy    dyz    dz2    dxz    dx2    tot
  1  0.000  0.000  0.024  0.024  0.091  0.090  0.000  0.000  0.000  0.229
  2  0.000  0.000  0.007  0.007  0.007  0.007  0.000  0.000  0.000  0.028
tot  0.000  0.000  0.032  0.031  0.097  0.097  0.000  0.000  0.000  0.257
 
band  14 # energy   13.76178922 # occ.  0.00000000
 
ion      s     py     pz     px    dxy    dyz    dz2    dxz    dx2    tot
  1  0.001  0.041  0.000  0.000  0.000  0.000  0.020  0.150  0.059  0.271
  2  0.000  0.013  0.000  0.000  0.000  0.000  0.005  0.010  0.016  0.046
tot  0.001  0.055  0.000  0.000  0.000  0.000  0.025  0.161  0.075  0.317
 
band  15 # energy   16.25981228 # occ.  0.00000000
 
ion      s     py     pz     px    dxy    dyz    dz2    dxz    dx2    tot
  1  0.044  0.001  0.000  0.000  0.000  0.000  0.000  0.004  0.000  0.050
  2  0.022  0.001  0.000  0.000  0.000  0.000  0.000  0.000  0.000  0.023
tot  0.067  0.002  0.000  0.000  0.000  0.000  0.000  0.004  0.000  0.073
 
band  16 # energy   24.45974212 # occ.  0.00000000
 
ion      s     py     pz     px    dxy    dyz    dz2    dxz    dx2    tot
  1  0.000  0.000  0.012  0.003  0.341  0.816  0.000  0.000  0.000  1.173
  2  0.000  0.000  0.030  0.029  0.036  0.125  0.000  0.000  0.000  0.219
tot  0.000  0.000  0.042  0.032  0.377  0.941  0.000  0.000  0.000  1.392
 
band  17 # energy   24.46002409 # occ.  0.00000000
 
ion      s     py     pz     px    dxy    dyz    dz2    dxz    dx2    tot
  1  0.000  0.000  0.004  0.013  0.816  0.340  0.000  0.000  0.000  1.173
  2  0.000  0.000  0.030  0.030  0.124  0.036  0.000  0.000  0.000  0.219
tot  0.000  0.000  0.034  0.042  0.940  0.376  0.000  0.000  0.000  1.392
 
band  18 # energy   24.61533588 # occ.  0.00000000
 
ion      s     py     pz     px    dxy    dyz    dz2    dxz    dx2    tot
  1  0.000  0.006  0.000  0.000  0.000  0.000  0.003  1.297  0.008  1.315
  2  0.000  0.065  0.000  0.000  0.000  0.000  0.001  0.152  0.001  0.219
tot  0.000  0.071  0.000  0.000  0.000  0.000  0.003  1.449  0.010  1.533
 
band  19 # energy   25.27437033 # occ.  0.00000000
 
ion      s     py     pz     px    dxy    dyz    dz2    dxz    dx2    tot
  1  0.000  0.000  0.000  0.000  0.000  0.000  0.476  0.000  0.144  0.622
  2  0.000  0.000  0.000  0.000  0.000  0.000  0.096  0.000  0.029  0.126
tot  0.000  0.000  0.000  0.000  0.000  0.000  0.573  0.000  0.173  0.748
 
band  20 # energy   25.61077579 # occ.  0.00000000
 
ion      s     py     pz     px    dxy    dyz    dz2    dxz    dx2    tot
  1  0.000  0.044  0.000  0.003  0.000  0.003  0.191  0.009  0.642  0.894
  2  0.000  0.031  0.000  0.003  0.000  0.001  0.042  0.045  0.140  0.262
tot  0.001  0.075  0.001  0.006  0.001  0.004  0.233  0.054  0.782  1.156
 

 k-point    4 :    0.03061224 0.00000000 0.03061224     weight = 0.00400000

band   1 # energy   -8.53288860 # occ.  2.00000000
 
ion      s     py     pz     px    dxy    dyz    dz2    dxz    dx2    tot
  1  0.276  0.001  0.000  0.000  0.000  0.000  0.000  0.000  0.000  0.277
  2  0.452  0.000  0.000  0.000  0.000  0.000  0.000  0.000  0.000  0.452
tot  0.728  0.001  0.000  0.000  0.000  0.000  0.000  0.000  0.000  0.729
 
band   2 # energy    2.70810998 # occ.  2.00000000
 
ion      s     py     pz     px    dxy    dyz    dz2    dxz    dx2    tot
  1  0.269  0.052  0.000  0.000  0.000  0.000  0.000  0.051  0.000  0.371
  2  0.188  0.178  0.000  0.000  0.000  0.000  0.000  0.001  0.000  0.366
tot  0.456  0.229  0.000  0.000  0.000  0.000  0.000  0.052  0.000  0.737
 
band   3 # energy    3.22378695 # occ.  1.96681904
 
ion      s     py     pz     px    dxy    dyz    dz2    dxz    dx2    tot
  1  0.000  0.000  0.066  0.067  0.059  0.060  0.000  0.000  0.000  0.251
  2  0.000  0.000  0.222  0.227  0.001  0.001  0.000  0.000  0.000  0.451
tot  0.000  0.000  0.288  0.294  0.060  0.061  0.000  0.000  0.000  0.703
 
band   4 # energy    3.22378733 # occ.  1.96681815
 
ion      s     py     pz     px    dxy    dyz    dz2    dxz    dx2    tot
  1  0.000  0.000  0.067  0.066  0.060  0.059  0.000  0.000  0.000  0.251
  2  0.000  0.000  0.227  0.222  0.001  0.001  0.000  0.000  0.000  0.451
tot  0.000  0.000  0.294  0.288  0.061  0.060  0.000  0.000  0.000  0.703
 
band   5 # energy    3.64658275 # occ.  0.00000000
 
ion      s     py     pz     px    dxy    dyz    dz2    dxz    dx2    tot
  1  0.169  0.074  0.000  0.000  0.000  0.000  0.000  0.069  0.000  0.313
  2  0.127  0.277  0.000  0.000  0.000  0.000  0.000  0.001  0.000  0.405
tot  0.296  0.351  0.000  0.000  0.000  0.000  0.000  0.070  0.000  0.718
 
band   6 # energy    7.15608473 # occ.  0.00000000
 
ion      s     py     pz     px    dxy    dyz    dz2    dxz    dx2    tot
  1  0.006  0.574  0.000  0.000  0.000  0.000  0.000  0.013  0.000  0.593
  2  0.001  0.020  0.000  0.000  0.000  0.000  0.000  0.059  0.000  0.080
tot  0.007  0.594  0.000  0.000  0.000  0.000  0.000  0.072  0.000  0.673
 
band   7 # energy    7.26290309 # occ.  0.00000000
 
ion      s     py     pz     px    dxy    dyz    dz2    dxz    dx2    tot
  1  0.000  0.000  0.305  0.276  0.008  0.007  0.000  0.000  0.000  0.596
  2  0.000  0.000  0.013  0.012  0.032  0.029  0.000  0.000  0.000  0.086
tot  0.000  0.000  0.318  0.288  0.040  0.036  0.000  0.000  0.000  0.682
 
band   8 # energy    7.26290315 # occ.  0.00000000
 
ion      s     py     pz     px    dxy    dyz    dz2    dxz    dx2    tot
  1  0.000  0.000  0.276  0.305  0.007  0.008  0.000  0.000  0.000  0.596
  2  0.000  0.000  0.012  0.013  0.029  0.032  0.000  0.000  0.000  0.086
tot  0.000  0.000  0.288  0.318  0.036  0.040  0.000  0.000  0.000  0.682
 
band   9 # energy   10.87190038 # occ.  0.00000000
 
ion      s     py     pz     px    dxy    dyz    dz2    dxz    dx2    tot
  1  0.281  0.015  0.000  0.000  0.000  0.000  0.000  0.000  0.000  0.296
  2  0.005  0.001  0.000  0.000  0.000  0.000  0.000  0.001  0.000  0.007
tot  0.287  0.015  0.000  0.000  0.000  0.000  0.000  0.001  0.000  0.303
 
band  10 # energy   12.48954592 # occ.  0.00000000
 
ion      s     py     pz     px    dxy    dyz    dz2    dxz    dx2    tot
  1  0.000  0.007  0.000  0.000  0.000  0.000  0.100  0.045  0.301  0.454
  2  0.000  0.001  0.000  0.000  0.000  0.000  0.028  0.004  0.084  0.118
tot  0.001  0.009  0.000  0.000  0.000  0.000  0.129  0.049  0.386  0.572
 
band  11 # energy   12.78811062 # occ.  0.00000000
 
ion      s     py     pz     px    dxy    dyz    dz2    dxz    dx2    tot
  1  0.000  0.000  0.000  0.000  0.000  0.000  0.397  0.000  0.132  0.529
  2  0.000  0.000  0.000  0.000  0.000  0.000  0.111  0.000  0.037  0.148
tot  0.000  0.000  0.000  0.000  0.000  0.000  0.508  0.000  0.169  0.677
 
band  12 # energy   13.67163396 # occ.  0.00000000
 
ion      s     py     pz     px    dxy    dyz    dz2    dxz    dx2    tot
  1  0.000  0.000  0.024  0.024  0.091  0.091  0.000  0.000  0.000  0.230
  2  0.000  0.000  0.007  0.007  0.007  0.007  0.000  0.000  0.000  0.028
tot  0.000  0.000  0.031  0.031  0.097  0.098  0.000  0.000  0.000  0.258
 
band  13 # energy   13.67163397 # occ.  0.00000000
 
ion      s     py     pz     px    dxy    dyz    dz2    dxz    dx2    tot
  1  0.000  0.000  0.024  0.024  0.091  0.091  0.000  0.000  0.000  0.230
  2  0.000  0.000  0.007  0.007  0.007  0.007  0.000  0.000  0.000  0.028
tot  0.000  0.000  0.031  0.031  0.098  0.097  0.000  0.000  0.000  0.258
 
band  14 # energy   13.87236650 # occ.  0.00000000
 
ion      s     py     pz     px    dxy    dyz    dz2    dxz    dx2    tot
  1  0.002  0.037  0.000  0.000  0.000  0.000  0.032  0.129  0.096  0.296
  2  0.001  0.012  0.000  0.000  0.000  0.000  0.009  0.009  0.026  0.057
tot  0.003  0.049  0.000  0.000  0.000  0.000  0.041  0.138  0.123  0.353
 
band  15 # energy   16.33107740 # occ.  0.00000000
 
ion      s     py     pz     px    dxy    dyz    dz2    dxz    dx2    tot
  1  0.043  0.003  0.000  0.000  0.000  0.000  0.000  0.008  0.001  0.055
  2  0.022  0.001  0.000  0.000  0.000  0.000  0.000  0.001  0.000  0.024
tot  0.065  0.004  0.000  0.000  0.000  0.000  0.000  0.009  0.001  0.079
 
band  16 # energy   24.28823005 # occ.  0.00000000
 
ion      s     py     pz     px    dxy    dyz    dz2    dxz    dx2    tot
  1  0.000  0.000  0.007  0.018  0.962  0.084  0.000  0.000  0.000  1.070
  2  0.000  0.000  0.052  0.006  0.113  0.048  0.000  0.000  0.000  0.219
tot  0.000  0.000  0.058  0.024  1.075  0.131  0.000  0.000  0.000  1.289
 
band  17 # energy   24.28854336 # occ.  0.00000000
 
ion      s     py     pz     px    dxy    dyz    dz2    dxz    dx2    tot
  1  0.000  0.000  0.017  0.007  0.086  0.967  0.000  0.000  0.000  1.077
  2  0.000  0.000  0.006  0.052  0.047  0.113  0.000  0.000  0.000  0.218
tot  0.000  0.000  0.023  0.058  0.133  1.081  0.000  0.000  0.000  1.295
 
band  18 # energy   24.59992181 # occ.  0.00000000
 
ion      s     py     pz     px    dxy    dyz    dz2    dxz    dx2    tot
  1  0.000  0.010  0.000  0.000  0.000  0.000  0.007  1.274  0.020  1.311
  2  0.001  0.073  0.000  0.000  0.000  0.000  0.001  0.136  0.004  0.215
tot  0.001  0.083  0.000  0.000  0.000  0.000  0.008  1.410  0.024  1.526
 
band  19 # energy   25.01794698 # occ.  0.00000000
 
ion      s     py     pz     px    dxy    dyz    dz2    dxz    dx2    tot
  1  0.000  0.000  0.000  0.000  0.000  0.000  0.454  0.000  0.157  0.611
  2  0.000  0.000  0.000  0.000  0.000  0.000  0.090  0.000  0.031  0.121
tot  0.000  0.000  0.000  0.000  0.000  0.000  0.544  0.000  0.188  0.732
 
band  20 # energy   25.50837504 # occ.  0.00000000
 
ion      s     py     pz     px    dxy    dyz    dz2    dxz    dx2    tot
  1  0.001  0.054  0.002  0.001  0.006  0.001  0.184  0.030  0.536  0.816
  2  0.000  0.034  0.003  0.002  0.000  0.001  0.042  0.066  0.121  0.269
tot  0.001  0.089  0.006  0.003  0.006  0.002  0.226  0.096  0.656  1.086
 

 k-point    5 :    0.04081633 0.00000000 0.04081633     weight = 0.00400000

band   1 # energy   -8.52421342 # occ.  2.00000000
 
ion      s     py     pz     px    dxy    dyz    dz2    dxz    dx2    tot
  1  0.276  0.001  0.000  0.000  0.000  0.000  0.000  0.000  0.000  0.277
  2  0.452  0.000  0.000  0.000  0.000  0.000  0.000  0.000  0.000  0.452
tot  0.728  0.001  0.000  0.000  0.000  0.000  0.000  0.000  0.000  0.729
 
band   2 # energy    2.55661580 # occ.  2.00000000
 
ion      s     py     pz     px    dxy    dyz    dz2    dxz    dx2    tot
  1  0.263  0.054  0.000  0.000  0.000  0.000  0.000  0.053  0.000  0.372
  2  0.181  0.185  0.000  0.000  0.000  0.000  0.000  0.001  0.000  0.367
tot  0.444  0.239  0.000  0.000  0.000  0.000  0.000  0.055  0.000  0.738
 
band   3 # energy    3.19483856 # occ.  1.99680856
 
ion      s     py     pz     px    dxy    dyz    dz2    dxz    dx2    tot
  1  0.000  0.000  0.070  0.068  0.060  0.057  0.000  0.000  0.000  0.254
  2  0.000  0.000  0.228  0.217  0.001  0.001  0.000  0.000  0.000  0.448
tot  0.000  0.000  0.298  0.285  0.061  0.058  0.000  0.000  0.000  0.702
 
band   4 # energy    3.19483893 # occ.  1.99680845
 
ion      s     py     pz     px    dxy    dyz    dz2    dxz    dx2    tot
  1  0.000  0.000  0.068  0.070  0.057  0.060  0.000  0.000  0.000  0.254
  2  0.000  0.000  0.217  0.228  0.001  0.001  0.000  0.000  0.000  0.448
tot  0.000  0.000  0.285  0.298  0.058  0.061  0.000  0.000  0.000  0.702
 