<?xml version="1.0" encoding="ISO-8859-1"?>
<modeling>
 <generator>
  <i name="program" type="string">vasp </i>
  <i name="version" type="string">5.4.1  </i>
  <i name="subversion" type="string">24Jun15 (build Jul 24 2019 15:43:00) complex                          parallel </i>
  <i name="platform" type="string">IFC18.0.1.163_CrayMPICH7.7.6-MKL18.0.1.163 </i>
  <i name="date" type="string">2022 06 14 </i>
  <i name="time" type="string">12:35:47 </i>
 </generator>
 <incar>
  <i type="string" name="PREC">n</i>
  <i type="string" name="ALGO"> Fast</i>
  <i name="BMIX">      3.00000000</i>
  <i name="AMIN">      0.01000000</i>
  <i type="int" name="ICHARG">    11</i>
  <i type="int" name="NELM">   500</i>
  <i name="EDIFF">      0.00001000</i>
  <i name="ENCUT">    400.00000000</i>
  <i type="int" name="NBANDS">    20</i>
  <i type="int" name="ISMEAR">     0</i>
  <i name="SIGMA">      0.05000000</i>
  <i type="logical" name="LWAVE"> F  </i>
  <i type="logical" name="LCHARG"> F  </i>
  <i type="logical" name="LORBIT"> F  </i>
  <i type="logical" name="LASPH"> T  </i>
  <v type="int" name="KPOINT_BSE">    -1     0     0     0</v>
  <i type="int" name="NELM">   500</i>
  <i type="logical" name="LASPH"> T  </i>
 </incar>
 <kpoints>
  <generation param="listgenerated">
   <i name="divisions" type="int">      50 </i>
   <v>       0.00000000       0.00000000       0.00000000 </v>
   <v>       0.50000000       0.00000000       0.50000000 </v>
   <v>       0.50000000       0.25000000       0.75000000 </v>
   <v>       0.50000000       0.50000000       0.50000000 </v>
   <v>       0.00000000       0.00000000       0.00000000 </v>
   <v>       0.37500000       0.37500000       0.75000000 </v>
  </generation>
  <varray name="kpointlist" >
   <v>       0.00000000       0.00000000       0.00000000 </v>
   <v>       0.01020408       0.00000000       0.01020408 </v>
   <v>       0.02040816       0.00000000       0.02040816 </v>
   <v>       0.03061224       0.00000000       0.03061224 </v>
   <v>       0.04081633       0.00000000       0.04081633 </v>
   <v>       0.05102041       0.00000000       0.05102041 </v>
   <v>       0.06122449       0.00000000       0.06122449 </v>
   <v>       0.07142857       0.00000000       0.07142857 </v>
   <v>       0.08163265       0.00000000       0.08163265 </v>
   <v>       0.09183673       0.00000000       0.09183673 </v>
   <v>       0.10204082       0.00000000       0.10204082 </v>
   <v>       0.11224490       0.00000000       0.11224490 </v>
   <v>       0.12244898       0.00000000       0.12244898 </v>
   <v>       0.13265306       0.00000000       0.13265306 </v>
   <v>       0.14285714       0.00000000       0.14285714 </v>
   <v>       0.15306122       0.00000000       0.15306122 </v>
   <v>       0.16326531       0.00000000       0.16326531 </v>
   <v>       0.17346939       0.00000000       0.17346939 </v>
   <v>       0.18367347       0.00000000       0.18367347 </v>
   <v>       0.19387755       0.00000000       0.19387755 </v>
   <v>       0.20408163       0.00000000       0.20408163 </v>
   <v>       0.21428571       0.00000000       0.21428571 </v>
   <v>       0.22448980       0.00000000       0.22448980 </v>
   <v>       0.23469388       0.00000000       0.23469388 </v>
   <v>       0.24489796       0.00000000       0.24489796 </v>
   <v>       0.25510204       0.00000000       0.25510204 </v>
   <v>       0.26530612       0.00000000       0.26530612 </v>
   <v>       0.27551020       0.00000000       0.27551020 </v>
   <v>       0.28571429       0.00000000       0.28571429 </v>
   <v>       0.29591837       0.00000000       0.29591837 </v>
   <v>       0.30612245       0.00000000       0.30612245 </v>
   <v>       0.31632653       0.00000000       0.31632653 </v>
   <v>       0.32653061       0.00000000       0.32653061 </v>
   <v>       0.33673469       0.00000000       0.33673469 </v>
   <v>       0.34693878       0.00000000       0.34693878 </v>
   <v>       0.35714286       0.00000000       0.35714286 </v>
   <v>       0.36734694       0.00000000       0.36734694 </v>
   <v>       0.37755102       0.00000000       0.37755102 </v>
   <v>       0.38775510       0.00000000       0.38775510 </v>
   <v>       0.39795918       0.00000000       0.39795918 </v>
   <v>       0.40816327       0.00000000       0.40816327 </v>
   <v>       0.41836735       0.00000000       0.41836735 </v>
   <v>       0.42857143       0.00000000       0.42857143 </v>
   <v>       0.43877551       0.00000000       0.43877551 </v>
   <v>       0.44897959       0.00000000       0.44897959 </v>
   <v>       0.45918367       0.00000000       0.45918367 </v>
   <v>       0.46938776       0.00000000       0.46938776 </v>
   <v>       0.47959184       0.00000000       0.47959184 </v>
   <v>       0.48979592       0.00000000       0.48979592 </v>
   <v>       0.50000000       0.00000000       0.50000000 </v>
   <v>       0.50000000       0.00000000       0.50000000 </v>
   <v>       0.50000000       0.00510204       0.50510204 </v>
   <v>       0.50000000       0.01020408       0.51020408 </v>
   <v>       0.50000000       0.01530612       0.51530612 </v>
   <v>       0.50000000       0.02040816       0.52040816 </v>
   <v>       0.50000000       0.02551020       0.52551020 </v>
   <v>       0.50000000       0.03061224       0.53061224 </v>
   <v>       0.50000000       0.03571429       0.53571429 </v>
   <v>       0.50000000       0.04081633       0.54081633 </v>
   <v>       0.50000000       0.04591837       0.54591837 </v>
   <v>       0.50000000       0.05102041       0.55102041 </v>
   <v>       0.50000000       0.05612245       0.55612245 </v>
   <v>       0.50000000       0.06122449       0.56122449 </v>
   <v>       0.50000000       0.06632653       0.56632653 </v>
   <v>       0.50000000       0.07142857       0.57142857 </v>
   <v>       0.50000000       0.07653061       0.57653061 </v>
   <v>       0.50000000       0.08163265       0.58163265 </v>
   <v>       0.50000000       0.08673469       0.58673469 </v>
   <v>       0.50000000       0.09183673       0.59183673 </v>
   <v>       0.50000000       0.09693878       0.59693878 </v>
   <v>       0.50000000       0.10204082       0.60204082 </v>
   <v>       0.50000000       0.10714286       0.60714286 </v>
   <v>       0.50000000       0.11224490       0.61224490 </v>
   <v>       0.50000000       0.11734694       0.61734694 </v>
   <v>       0.50000000       0.12244898       0.62244898 </v>
   <v>       0.50000000       0.12755102       0.62755102 </v>
   <v>       0.50000000       0.13265306       0.63265306 </v>
   <v>       0.50000000       0.13775510       0.63775510 </v>
   <v>       0.50000000       0.14285714       0.64285714 </v>
   <v>       0.50000000       0.14795918       0.64795918 </v>
   <v>       0.50000000       0.15306122       0.65306122 </v>
   <v>       0.50000000       0.15816327       0.65816327 </v>
   <v>       0.50000000       0.16326531       0.66326531 </v>
   <v>       0.50000000       0.16836735       0.66836735 </v>
   <v>       0.50000000       0.17346939       0.67346939 </v>
   <v>       0.50000000       0.17857143       0.67857143 </v>
   <v>       0.50000000       0.18367347       0.68367347 </v>
   <v>       0.50000000       0.18877551       0.68877551 </v>
   <v>       0.50000000       0.19387755       0.69387755 </v>
   <v>       0.50000000       0.19897959       0.69897959 </v>
   <v>       0.50000000       0.20408163       0.70408163 </v>
   <v>       0.50000000       0.20918367       0.70918367 </v>
   <v>       0.50000000       0.21428571       0.71428571 </v>
   <v>       0.50000000       0.21938776       0.71938776 </v>
   <v>       0.50000000       0.22448980       0.72448980 </v>
   <v>       0.50000000       0.22959184       0.72959184 </v>
   <v>       0.50000000       0.23469388       0.73469388 </v>
   <v>       0.50000000       0.23979592       0.73979592 </v>
   <v>       0.50000000       0.24489796       0.74489796 </v>
   <v>       0.50000000       0.25000000       0.75000000 </v>
   <v>       0.50000000       0.25000000       0.75000000 </v>
   <v>       0.50000000       0.25510204       0.74489796 </v>
   <v>       0.50000000       0.26020408       0.73979592 </v>
   <v>       0.50000000       0.26530612       0.73469388 </v>
   <v>       0.50000000       0.27040816       0.72959184 </v>
   <v>       0.50000000       0.27551020       0.72448980 </v>
   <v>       0.50000000       0.28061224       0.71938776 </v>
   <v>       0.50000000       0.28571429       0.71428571 </v>
   <v>       0.50000000       0.29081633       0.70918367 </v>
   <v>       0.50000000       0.29591837       0.70408163 </v>
   <v>       0.50000000       0.30102041       0.69897959 </v>
   <v>       0.50000000       0.30612245       0.69387755 </v>
   <v>       0.50000000       0.31122449       0.68877551 </v>
   <v>       0.50000000       0.31632653       0.68367347 </v>
   <v>       0.50000000       0.32142857       0.67857143 </v>
   <v>       0.50000000       0.32653061       0.67346939 </v>
   <v>       0.50000000       0.33163265       0.66836735 </v>
   <v>       0.50000000       0.33673469       0.66326531 </v>
   <v>       0.50000000       0.34183673       0.65816327 </v>
   <v>       0.50000000       0.34693878       0.65306122 </v>
   <v>       0.50000000       0.35204082       0.64795918 </v>
   <v>       0.50000000       0.35714286       0.64285714 </v>
   <v>       0.50000000       0.36224490       0.63775510 </v>
   <v>       0.50000000       0.36734694       0.63265306 </v>
   <v>       0.50000000       0.37244898       0.62755102 </v>
   <v>       0.50000000       0.37755102       0.62244898 </v>
   <v>       0.50000000       0.38265306       0.61734694 </v>
   <v>       0.50000000       0.38775510       0.61224490 </v>
   <v>       0.50000000       0.39285714       0.60714286 </v>
   <v>       0.50000000       0.39795918       0.60204082 </v>
   <v>       0.50000000       0.40306122       0.59693878 </v>
   <v>       0.50000000       0.40816327       0.59183673 </v>
   <v>       0.50000000       0.41326531       0.58673469 </v>
   <v>       0.50000000       0.41836735       0.58163265 </v>
   <v>       0.50000000       0.42346939       0.57653061 </v>
   <v>       0.50000000       0.42857143       0.57142857 </v>
   <v>       0.50000000       0.43367347       0.56632653 </v>
   <v>       0.50000000       0.43877551       0.56122449 </v>
   <v>       0.50000000       0.44387755       0.55612245 </v>
   <v>       0.50000000       0.44897959       0.55102041 </v>
   <v>       0.50000000       0.45408163       0.54591837 </v>
   <v>       0.50000000       0.45918367       0.54081633 </v>
   <v>       0.50000000       0.46428571       0.53571429 </v>
   <v>       0.50000000       0.46938776       0.53061224 </v>
   <v>       0.50000000       0.47448980       0.52551020 </v>
   <v>       0.50000000       0.47959184       0.52040816 </v>
   <v>       0.50000000       0.48469388       0.51530612 </v>
   <v>       0.50000000       0.48979592       0.51020408 </v>
   <v>       0.50000000       0.49489796       0.50510204 </v>
   <v>       0.50000000       0.50000000       0.50000000 </v>
   <v>       0.50000000       0.50000000       0.50000000 </v>
   <v>       0.48979592       0.48979592       0.48979592 </v>
   <v>       0.47959184       0.47959184       0.47959184 </v>
   <v>       0.46938776       0.46938776       0.46938776 </v>
   <v>       0.45918367       0.45918367       0.45918367 </v>
   <v>       0.44897959       0.44897959       0.44897959 </v>
   <v>       0.43877551       0.43877551       0.43877551 </v>
   <v>       0.42857143       0.42857143       0.42857143 </v>
   <v>       0.41836735       0.41836735       0.41836735 </v>
   <v>       0.40816327       0.40816327       0.40816327 </v>
   <v>       0.39795918       0.39795918       0.39795918 </v>
   <v>       0.38775510       0.38775510       0.38775510 </v>
   <v>       0.37755102       0.37755102       0.37755102 </v>
   <v>       0.36734694       0.36734694       0.36734694 </v>
   <v>       0.35714286       0.35714286       0.35714286 </v>
   <v>       0.34693878       0.34693878       0.34693878 </v>
   <v>       0.33673469       0.33673469       0.33673469 </v>
   <v>       0.32653061       0.32653061       0.32653061 </v>
   <v>       0.31632653       0.31632653       0.31632653 </v>
   <v>       0.30612245       0.30612245       0.30612245 </v>
   <v>       0.29591837       0.29591837       0.29591837 </v>
   <v>       0.28571429       0.28571429       0.28571429 </v>
   <v>       0.27551020       0.27551020       0.27551020 </v>
   <v>       0.26530612       0.26530612       0.26530612 </v>
   <v>       0.25510204       0.25510204       0.25510204 </v>
   <v>       0.24489796       0.24489796       0.24489796 </v>
   <v>       0.23469388       0.23469388       0.23469388 </v>
   <v>       0.22448980       0.22448980       0.22448980 </v>
   <v>       0.21428571       0.21428571       0.21428571 </v>
   <v>       0.20408163       0.20408163       0.20408163 </v>
   <v>       0.19387755       0.19387755       0.19387755 </v>
   <v>       0.18367347       0.18367347       0.18367347 </v>
   <v>       0.17346939       0.17346939       0.17346939 </v>
   <v>       0.16326531       0.16326531       0.16326531 </v>
   <v>       0.15306122       0.15306122       0.15306122 </v>
   <v>       0.14285714       0.14285714       0.14285714 </v>
   <v>       0.13265306       0.13265306       0.13265306 </v>
   <v>       0.12244898       0.12244898       0.12244898 </v>
   <v>       0.11224490       0.11224490       0.11224490 </v>
   <v>       0.10204082       0.10204082       0.10204082 </v>
   <v>       0.09183673       0.09183673       0.09183673 </v>
   <v>       0.08163265       0.08163265       0.08163265 </v>
   <v>       0.07142857       0.07142857       0.07142857 </v>
   <v>       0.06122449       0.06122449       0.06122449 </v>
   <v>       0.05102041       0.05102041       0.05102041 </v>
   <v>       0.04081633       0.04081633       0.04081633 </v>
   <v>       0.03061224       0.03061224       0.03061224 </v>
   <v>       0.02040816       0.02040816       0.02040816 </v>
   <v>       0.01020408       0.01020408       0.01020408 </v>
   <v>       0.00000000       0.00000000       0.00000000 </v>
   <v>       0.00000000       0.00000000       0.00000000 </v>
   <v>       0.00765306       0.00765306       0.01530612 </v>
   <v>       0.01530612       0.01530612       0.03061224 </v>
   <v>       0.02295918       0.02295918       0.04591837 </v>
   <v>       0.03061224       0.03061224       0.06122449 </v>
   <v>       0.03826531       0.03826531       0.07653061 </v>
   <v>       0.04591837       0.04591837       0.09183673 </v>
   <v>       0.05357143       0.05357143       0.10714286 </v>
   <v>       0.06122449       0.06122449       0.12244898 </v>
   <v>       0.06887755       0.06887755       0.13775510 </v>
   <v>       0.07653061       0.07653061       0.15306122 </v>
   <v>       0.08418367       0.08418367       0.16836735 </v>
   <v>       0.09183673       0.09183673       0.18367347 </v>
   <v>       0.09948980       0.09948980       0.19897959 </v>
   <v>       0.10714286       0.10714286       0.21428571 </v>
   <v>       0.11479592       0.11479592       0.22959184 </v>
   <v>       0.12244898       0.12244898       0.24489796 </v>
   <v>       0.13010204       0.13010204       0.26020408 </v>
   <v>       0.13775510       0.13775510       0.27551020 </v>
   <v>       0.14540816       0.14540816       0.29081633 </v>
   <v>       0.15306122       0.15306122       0.30612245 </v>
   <v>       0.16071429       0.16071429       0.32142857 </v>
   <v>       0.16836735       0.16836735       0.33673469 </v>
   <v>       0.17602041       0.17602041       0.35204082 </v>
   <v>       0.18367347       0.18367347       0.36734694 </v>
   <v>       0.19132653       0.19132653       0.38265306 </v>
   <v>       0.19897959       0.19897959       0.39795918 </v>
   <v>       0.20663265       0.20663265       0.41326531 </v>
   <v>       0.21428571       0.21428571       0.42857143 </v>
   <v>       0.22193878       0.22193878       0.44387755 </v>
   <v>       0.22959184       0.22959184       0.45918367 </v>
   <v>       0.23724490       0.23724490       0.47448980 </v>
   <v>       0.24489796       0.24489796       0.48979592 </v>
   <v>       0.25255102       0.25255102       0.50510204 </v>
   <v>       0.26020408       0.26020408       0.52040816 </v>
   <v>       0.26785714       0.26785714       0.53571429 </v>
   <v>       0.27551020       0.27551020       0.55102041 </v>
   <v>       0.28316327       0.28316327       0.56632653 </v>
   <v>       0.29081633       0.29081633       0.58163265 </v>
   <v>       0.29846939       0.29846939       0.59693878 </v>
   <v>       0.30612245       0.30612245       0.61224490 </v>
   <v>       0.31377551       0.31377551       0.62755102 </v>
   <v>       0.32142857       0.32142857       0.64285714 </v>
   <v>       0.32908163       0.32908163       0.65816327 </v>
   <v>       0.33673469       0.33673469       0.67346939 </v>
   <v>       0.34438776       0.34438776       0.68877551 </v>
   <v>       0.35204082       0.35204082       0.70408163 </v>
   <v>       0.35969388       0.35969388       0.71938776 </v>
   <v>       0.36734694       0.36734694       0.73469388 </v>
   <v>       0.37500000       0.37500000       0.75000000 </v>
  </varray>
  <varray name="weights" >
   <v>       0.00400000 </v>
   <v>       0.00400000 </v>
   <v>       0.00400000 </v>
   <v>       0.00400000 </v>
   <v>       0.00400000 </v>
   <v>       0.00400000 </v>
   <v>       0.00400000 </v>
   <v>       0.00400000 </v>
   <v>       0.00400000 </v>
   <v>       0.00400000 </v>
   <v>       0.00400000 </v>
   <v>       0.00400000 </v>
   <v>       0.00400000 </v>
   <v>       0.00400000 </v>
   <v>       0.00400000 </v>
   <v>       0.00400000 </v>
   <v>       0.00400000 </v>
   <v>       0.00400000 </v>
   <v>       0.00400000 </v>
   <v>       0.00400000 </v>
   <v>       0.00400000 </v>
   <v>       0.00400000 </v>
   <v>       0.00400000 </v>
   <v>       0.00400000 </v>
   <v>       0.00400000 </v>
   <v>       0.00400000 </v>
   <v>       0.00400000 </v>
   <v>       0.00400000 </v>
   <v>       0.00400000 </v>
   <v>       0.00400000 </v>
   <v>       0.00400000 </v>
   <v>       0.00400000 </v>
   <v>       0.00400000 </v>
   <v>       0.00400000 </v>
   <v>       0.00400000 </v>
   <v>       0.00400000 </v>
   <v>       0.00400000 </v>
   <v>       0.00400000 </v>
   <v>       0.00400000 </v>
   <v>       0.00400000 </v>
   <v>       0.00400000 </v>
   <v>       0.00400000 </v>
   <v>       0.00400000 </v>
   <v>       0.00400000 </v>
   <v>       0.00400000 </v>
   <v>       0.00400000 </v>
   <v>       0.00400000 </v>
   <v>       0.00400000 </v>
   <v>       0.00400000 </v>
   <v>       0.00400000 </v>
   <v>       0.00400000 </v>
   <v>       0.00400000 </v>
   <v>       0.00400000 </v>
   <v>       0.00400000 </v>
   <v>       0.00400000 </v>
   <v>       0.00400000 </v>
   <v>       0.00400000 </v>
   <v>       0.00400000 </v>
   <v>       0.00400000 </v>
   <v>       0.00400000 </v>
   <v>       0.00400000 </v>
   <v>       0.00400000 </v>
   <v>       0.00400000 </v>
   <v>       0.00400000 </v>
   <v>       0.00400000 </v>
   <v>       0.00400000 </v>
   <v>       0.00400000 </v>
   <v>       0.00400000 </v>
   <v>       0.00400000 </v>
   <v>       0.00400000 </v>
   <v>       0.00400000 </v>
   <v>       0.00400000 </v>
   <v>       0.00400000 </v>
   <v>       0.00400000 </v>
   <v>       0.00400000 </v>
   <v>       0.00400000 </v>
   <v>       0.00400000 </v>
   <v>       0.00400000 </v>
   <v>       0.00400000 </v>
   <v>       0.00400000 </v>
   <v>       0.00400000 </v>
   <v>       0.00400000 </v>
   <v>       0.00400000 </v>
   <v>       0.00400000 </v>
   <v>       0.00400000 </v>
   <v>       0.00400000 </v>
   <v>       0.00400000 </v>
   <v>       0.00400000 </v>
   <v>       0.00400000 </v>
   <v>       0.00400000 </v>
   <v>       0.00400000 </v>
   <v>       0.00400000 </v>
   <v>       0.00400000 </v>
   <v>       0.00400000 </v>
   <v>       0.00400000 </v>
   <v>       0.00400000 </v>
   <v>       0.00400000 </v>
   <v>       0.00400000 </v>
   <v>       0.00400000 </v>
   <v>       0.00400000 </v>
   <v>       0.00400000 </v>
   <v>       0.00400000 </v>
   <v>       0.00400000 </v>
   <v>       0.00400000 </v>
   <v>       0.00400000 </v>
   <v>       0.00400000 </v>
   <v>       0.00400000 </v>
   <v>       0.00400000 </v>
   <v>       0.00400000 </v>
   <v>       0.00400000 </v>
   <v>       0.00400000 </v>
   <v>       0.00400000 </v>
   <v>       0.00400000 </v>
   <v>       0.00400000 </v>
   <v>       0.00400000 </v>
   <v>       0.00400000 </v>
   <v>       0.00400000 </v>
   <v>       0.00400000 </v>
   <v>       0.00400000 </v>
   <v>       0.00400000 </v>
   <v>       0.00400000 </v>
   <v>       0.00400000 </v>
   <v>       0.00400000 </v>
   <v>       0.00400000 </v>
   <v>       0.00400000 </v>
   <v>       0.00400000 </v>
   <v>       0.00400000 </v>
   <v>       0.00400000 </v>
   <v>       0.00400000 </v>
   <v>       0.00400000 </v>
   <v>       0.00400000 </v>
   <v>       0.00400000 </v>
   <v>       0.00400000 </v>
   <v>       0.00400000 </v>
   <v>       0.00400000 </v>
   <v>       0.00400000 </v>
   <v>       0.00400000 </v>
   <v>       0.00400000 </v>
   <v>       0.00400000 </v>
   <v>       0.00400000 </v>
   <v>       0.00400000 </v>
   <v>       0.00400000 </v>
   <v>       0.00400000 </v>
   <v>       0.00400000 </v>
   <v>       0.00400000 </v>
   <v>       0.00400000 </v>
   <v>       0.00400000 </v>
   <v>       0.00400000 </v>
   <v>       0.00400000 </v>
   <v>       0.00400000 </v>
   <v>       0.00400000 </v>
   <v>       0.00400000 </v>
   <v>       0.00400000 </v>
   <v>       0.00400000 </v>
   <v>       0.00400000 </v>
   <v>       0.00400000 </v>
   <v>       0.00400000 </v>
   <v>       0.00400000 </v>
   <v>       0.00400000 </v>
   <v>       0.00400000 </v>
   <v>       0.00400000 </v>
   <v>       0.00400000 </v>
   <v>       0.00400000 </v>
   <v>       0.00400000 </v>
   <v>       0.00400000 </v>
   <v>       0.00400000 </v>
   <v>       0.00400000 </v>
   <v>       0.00400000 </v>
   <v>       0.00400000 </v>
   <v>       0.00400000 </v>
   <v>       0.00400000 </v>
   <v>       0.00400000 </v>
   <v>       0.00400000 </v>
   <v>       0.00400000 </v>
   <v>       0.00400000 </v>
   <v>       0.00400000 </v>
   <v>       0.00400000 </v>
   <v>       0.00400000 </v>
   <v>       0.00400000 </v>
   <v>       0.00400000 </v>
   <v>       0.00400000 </v>
   <v>       0.00400000 </v>
   <v>       0.00400000 </v>
   <v>       0.00400000 </v>
   <v>       0.00400000 </v>
   <v>       0.00400000 </v>
   <v>       0.00400000 </v>
   <v>       0.00400000 </v>
   <v>       0.00400000 </v>
   <v>       0.00400000 </v>
   <v>       0.00400000 </v>
   <v>       0.00400000 </v>
   <v>       0.00400000 </v>
   <v>       0.00400000 </v>
   <v>       0.00400000 </v>
   <v>       0.00400000 </v>
   <v>       0.00400000 </v>
   <v>       0.00400000 </v>
   <v>       0.00400000 </v>
   <v>       0.00400000 </v>
   <v>       0.00400000 </v>
   <v>       0.00400000 </v>
   <v>       0.00400000 </v>
   <v>       0.00400000 </v>
   <v>       0.00400000 </v>
   <v>       0.00400000 </v>
   <v>       0.00400000 </v>
   <v>       0.00400000 </v>
   <v>       0.00400000 </v>
   <v>       0.00400000 </v>
   <v>       0.00400000 </v>
   <v>       0.00400000 </v>
   <v>       0.00400000 </v>
   <v>       0.00400000 </v>
   <v>       0.00400000 </v>
   <v>       0.00400000 </v>
   <v>       0.00400000 </v>
   <v>       0.00400000 </v>
   <v>       0.00400000 </v>
   <v>       0.00400000 </v>
   <v>       0.00400000 </v>
   <v>       0.00400000 </v>
   <v>       0.00400000 </v>
   <v>       0.00400000 </v>
   <v>       0.00400000 </v>
   <v>       0.00400000 </v>
   <v>       0.00400000 </v>
   <v>       0.00400000 </v>
   <v>       0.00400000 </v>
   <v>       0.00400000 </v>
   <v>       0.00400000 </v>
   <v>       0.00400000 </v>
   <v>       0.00400000 </v>
   <v>       0.00400000 </v>
   <v>       0.00400000 </v>
   <v>       0.00400000 </v>
   <v>       0.00400000 </v>
   <v>       0.00400000 </v>
   <v>       0.00400000 </v>
   <v>       0.00400000 </v>
   <v>       0.00400000 </v>
   <v>       0.00400000 </v>
   <v>       0.00400000 </v>
   <v>       0.00400000 </v>
   <v>       0.00400000 </v>
   <v>       0.00400000 </v>
   <v>       0.00400000 </v>
   <v>       0.00400000 </v>
   <v>       0.00400000 </v>
   <v>       0.00400000 </v>
  </varray>
 </kpoints>
 <parameters>
  <separator name="general" >
   <i type="string" name="SYSTEM">unknown system</i>
   <i type="logical" name="LCOMPAT"> F  </i>
  </separator>
  <separator name="electronic" >
   <i type="string" name="PREC">n</i>
   <i name="ENMAX">    400.00000000</i>
   <i name="ENAUG">    462.75800000</i>
   <i name="EDIFF">      0.00001000</i>
   <i type="int" name="IALGO">    68</i>
   <i type="int" name="IWAVPR">    10</i>
   <i type="int" name="NBANDS">    20</i>
   <i name="NELECT">      8.00000000</i>
   <i type="int" name="TURBO">     0</i>
   <i type="int" name="IRESTART">     0</i>
   <i type="int" name="NREBOOT">     0</i>
   <i type="int" name="NMIN">     0</i>
   <i name="EREF">      0.00000000</i>
   <separator name="electronic smearing" >
    <i type="int" name="ISMEAR">     0</i>
    <i name="SIGMA">      0.05000000</i>
    <i name="KSPACING">      0.50000000</i>
    <i type="logical" name="KGAMMA"> T  </i>
   </separator>
   <separator name="electronic projectors" >
    <i type="logical" name="LREAL"> F  </i>
    <v name="ROPT">      0.00000000      0.00000000</v>
    <i type="int" name="LMAXPAW">  -100</i>
    <i type="int" name="LMAXMIX">     2</i>
    <i type="logical" name="NLSPLINE"> F  </i>
   </separator>
   <separator name="electronic startup" >
    <i type="int" name="ISTART">     0</i>
    <i type="int" name="ICHARG">    11</i>
    <i type="int" name="INIWAV">     1</i>
   </separator>
   <separator name="electronic spin" >
    <i type="int" name="ISPIN">     1</i>
    <i type="logical" name="LNONCOLLINEAR"> F  </i>
    <v name="MAGMOM">      1.00000000      1.00000000</v>
    <i name="NUPDOWN">     -1.00000000</i>
    <i type="logical" name="LSORBIT"> F  </i>
    <v name="SAXIS">      0.00000000      0.00000000      1.00000000</v>
    <i type="logical" name="LSPIRAL"> F  </i>
    <v name="QSPIRAL">      0.00000000      0.00000000      0.00000000</v>
    <i type="logical" name="LZEROZ"> F  </i>
   </separator>
   <separator name="electronic exchange-correlation" >
    <i type="logical" name="LASPH"> T  </i>
    <i type="logical" name="LMETAGGA"> F  </i>
   </separator>
   <separator name="electronic convergence" >
    <i type="int" name="NELM">   500</i>
    <i type="int" name="NELMDL">    -5</i>
    <i type="int" name="NELMIN">     2</i>
    <i name="ENINI">    400.00000000</i>
    <separator name="electronic convergence detail" >
     <i type="logical" name="LDIAG"> T  </i>
     <i type="logical" name="LSUBROT"> F  </i>
     <i name="WEIMIN">      0.00000000</i>
     <i name="EBREAK">      0.00000013</i>
     <i name="DEPER">      0.30000000</i>
     <i type="int" name="NRMM">     4</i>
     <i name="TIME">      0.40000000</i>
    </separator>
   </separator>
   <separator name="electronic mixer" >
    <i name="AMIX">      0.40000000</i>
    <i name="BMIX">      3.00000000</i>
    <i name="AMIN">      0.01000000</i>
    <i name="AMIX_MAG">      1.60000000</i>
    <i name="BMIX_MAG">      3.00000000</i>
    <separator name="electronic mixer details" >
     <i type="int" name="IMIX">     4</i>
     <i type="logical" name="MIXFIRST"> F  </i>
     <i type="int" name="MAXMIX">   -45</i>
     <i name="WC">    100.00000000</i>
     <i type="int" name="INIMIX">     1</i>
     <i type="int" name="MIXPRE">     1</i>
     <i type="int" name="MREMOVE">     5</i>
    </separator>
   </separator>
   <separator name="electronic dipolcorrection" >
    <i type="logical" name="LDIPOL"> F  </i>
    <i type="logical" name="LMONO"> F  </i>
    <i type="int" name="IDIPOL">     0</i>
    <i name="EPSILON">      1.00000000</i>
    <v name="DIPOL">   -100.00000000   -100.00000000   -100.00000000</v>
    <i name="EFIELD">      0.00000000</i>
   </separator>
  </separator>
  <separator name="grids" >
   <i type="int" name="NGX">    24</i>
   <i type="int" name="NGY">    24</i>
   <i type="int" name="NGZ">    24</i>
   <i type="int" name="NGXF">    48</i>
   <i type="int" name="NGYF">    48</i>
   <i type="int" name="NGZF">    48</i>
   <i type="logical" name="ADDGRID"> F  </i>
  </separator>
  <separator name="ionic" >
   <i type="int" name="NSW">     0</i>
   <i type="int" name="IBRION">    -1</i>
   <i type="int" name="ISIF">     2</i>
   <i name="PSTRESS">      0.00000000</i>
   <i name="EDIFFG">      0.00010000</i>
   <i type="int" name="NFREE">     0</i>
   <i name="POTIM">      0.50000000</i>
   <i name="SMASS">     -3.00000000</i>
   <i name="SCALEE">      1.00000000</i>
  </separator>
  <separator name="ionic md" >
   <i name="TEBEG">      0.00010000</i>
   <i name="TEEND">      0.00010000</i>
   <i type="int" name="NBLOCK">     1</i>
   <i type="int" name="KBLOCK">     1</i>
   <i type="int" name="NPACO">   256</i>
   <i name="APACO">     16.00000000</i>
  </separator>
  <separator name="symmetry" >
   <i type="int" name="ISYM">     2</i>
   <i name="SYMPREC">      0.00001000</i>
  </separator>
  <separator name="dos" >
   <i type="logical" name="LORBIT"> F  </i>
   <v name="RWIGS">     -1.00000000     -1.00000000</v>
   <i type="int" name="NEDOS">   301</i>
   <i name="EMIN">     10.00000000</i>
   <i name="EMAX">    -10.00000000</i>
   <i name="EFERMI">      0.00000000</i>
  </separator>
  <separator name="writing" >
   <i type="int" name="NWRITE">     2</i>
   <i type="logical" name="LWAVE"> F  </i>
   <i type="logical" name="LCHARG"> F  </i>
   <i type="logical" name="LPARD"> F  </i>
   <i type="logical" name="LVTOT"> F  </i>
   <i type="logical" name="LVHAR"> F  </i>
   <i type="logical" name="LELF"> F  </i>
   <i type="logical" name="LOPTICS"> F  </i>
   <v name="STM">      0.00000000      0.00000000      0.00000000      0.00000000      0.00000000      0.00000000      0.00000000</v>
  </separator>
  <separator name="performance" >
   <i type="int" name="NPAR">     4</i>
   <i type="int" name="NSIM">     4</i>
   <i type="int" name="NBLK">    -1</i>
   <i type="logical" name="LPLANE"> T  </i>
   <i type="logical" name="LSCALAPACK"> T  </i>
   <i type="logical" name="LSCAAWARE"> F  </i>
   <i type="logical" name="LSCALU"> F  </i>
   <i type="logical" name="LASYNC"> F  </i>
   <i type="logical" name="LORBITALREAL"> F  </i>
  </separator>
  <separator name="miscellaneous" >
   <i type="int" name="IDIOT">     3</i>
   <i type="logical" name="LMUSIC"> F  </i>
   <v name="POMASS">    114.82000000     74.92200000</v>
   <v name="DARWINR">      0.00000000      0.00000000</v>
   <v name="DARWINV">      1.00000000      1.00000000</v>
   <i type="logical" name="LCORR"> T  </i>
  </separator>
  <i type="logical" name="GGA_COMPAT"> T  </i>
  <i type="logical" name="LBERRY"> F  </i>
  <i type="int" name="ICORELEVEL">     0</i>
  <i type="logical" name="LDAU"> F  </i>
  <i type="int" name="I_CONSTRAINED_M">     0</i>
  <separator name="electronic exchange-correlation" >
   <i type="string" name="GGA">--</i>
   <i type="int" name="VOSKOWN">     0</i>
   <i type="logical" name="LHFCALC"> F  </i>
   <i type="string" name="PRECFOCK"></i>
   <i type="logical" name="LSYMGRAD"> F  </i>
   <i type="logical" name="LHFONE"> F  </i>
   <i type="logical" name="LRHFCALC"> F  </i>
   <i type="logical" name="LTHOMAS"> F  </i>
   <i type="logical" name="LMODELHF"> F  </i>
   <i name="ENCUT4O">     -1.00000000</i>
   <i type="int" name="EXXOEP">     0</i>
   <i type="int" name="FOURORBIT">     0</i>
   <i name="AEXX">      0.00000000</i>
   <i name="HFALPHA">      0.00000000</i>
   <i name="MCALPHA">      0.00000000</i>
   <i name="ALDAX">      1.00000000</i>
   <i name="AGGAX">      1.00000000</i>
   <i name="ALDAC">      1.00000000</i>
   <i name="AGGAC">      1.00000000</i>
   <i type="int" name="NKREDX">     1</i>
   <i type="int" name="NKREDY">     1</i>
   <i type="int" name="NKREDZ">     1</i>
   <i type="logical" name="SHIFTRED"> F  </i>
   <i type="logical" name="ODDONLY"> F  </i>
   <i type="logical" name="EVENONLY"> F  </i>
   <i type="int" name="LMAXFOCK">     0</i>
   <i type="int" name="NMAXFOCKAE">     0</i>
   <i type="logical" name="LFOCKAEDFT"> F  </i>
   <i name="HFSCREEN">      0.00000000</i>
   <i name="HFSCREENC">      0.00000000</i>
   <i type="int" name="NBANDSGWLOW">     0</i>
  </separator>
  <separator name="vdW DFT" >
   <i type="logical" name="LUSE_VDW"> F  </i>
   <i name="Zab_VDW">     -0.84910000</i>
   <i name="PARAM1">      0.12340000</i>
   <i name="PARAM2">      1.00000000</i>
   <i name="PARAM3">      0.00000000</i>
  </separator>
  <separator name="model GW" >
   <i type="int" name="MODEL_GW">     0</i>
   <i name="MODEL_EPS0">     16.67765919</i>
   <i name="MODEL_ALPHA">      1.00000000</i>
  </separator>
  <separator name="linear response parameters" >
   <i type="logical" name="LEPSILON"> F  </i>
   <i type="logical" name="LRPA"> F  </i>
   <i type="logical" name="LNABLA"> F  </i>
   <i type="logical" name="LVEL"> F  </i>
   <i type="int" name="KINTER">     0</i>
   <i name="CSHIFT">      0.10000000</i>
   <i name="OMEGAMAX">     -1.00000000</i>
   <i name="DEG_THRESHOLD">      0.00200000</i>
  </separator>
  <separator name="orbital magnetization" >
   <i type="logical" name="NUCIND"> F  </i>
   <v name="MAGPOS">      0.00000000      0.00000000      0.00000000</v>
   <i type="logical" name="LNICSALL"> T  </i>
   <i type="logical" name="ORBITALMAG"> F  </i>
   <i type="logical" name="LMAGBLOCH"> F  </i>
   <i type="logical" name="LCHIMAG"> F  </i>
   <i type="logical" name="LGAUGE"> T  </i>
   <i type="int" name="MAGATOM">     0</i>
   <v name="MAGDIPOL">      0.00000000      0.00000000      0.00000000</v>
   <v name="AVECCONST">      0.00000000      0.00000000      0.00000000</v>
  </separator>
  <separator name="response functions" >
   <i type="logical" name="LADDER"> F  </i>
   <i type="logical" name="LFXC"> F  </i>
   <i type="logical" name="LHARTREE"> T  </i>
   <i type="int" name="IBSE">     0</i>
   <v type="int" name="KPOINT">    -1     0     0     0</v>
   <i type="logical" name="LTCTE"> F  </i>
   <i type="logical" name="LTETE"> F  </i>
   <i type="logical" name="LTRIPLET"> F  </i>
   <i type="logical" name="LFXCEPS"> F  </i>
   <i type="logical" name="LFXHEG"> F  </i>
   <i type="int" name="NATURALO">     0</i>
   <i type="logical" name="L2ORDER"> F  </i>
   <i type="logical" name="LUSEW"> F  </i>
   <i name="ENCUTGW">     -2.00000000</i>
   <i name="ENCUTGWSOFT">     -2.00000000</i>
   <i name="ENCUTLF">     -1.00000000</i>
   <i type="int" name="LMAXMP2">    -1</i>
   <i name="SCISSOR">      0.00000000</i>
   <i type="int" name="NOMEGA">     0</i>
   <i type="int" name="NOMEGAR">     0</i>
   <i type="int" name="NBANDSGW">    -1</i>
   <i type="int" name="NBANDSO">    -1</i>
   <i type="int" name="NBANDSV">    -1</i>
   <i type="int" name="NELM">   500</i>
   <i type="int" name="NELMHF">     1</i>
   <i type="int" name="DIM">     3</i>
   <i type="int" name="ANTIRES">     0</i>
   <i name="OMEGAMAX">    -30.00000000</i>
   <i name="OMEGAMIN">    -30.00000000</i>
   <i name="OMEGATL">   -200.00000000</i>
   <i type="int" name="OMEGAGRID">     0</i>
   <i name="CSHIFT">     -0.10000000</i>
   <i type="logical" name="SELFENERGY"> F  </i>
   <i type="logical" name="LSPECTRAL"> F  </i>
   <i type="logical" name="LSPECTRALGW"> F  </i>
   <i type="logical" name="LSINGLES"> F  </i>
   <i type="logical" name="LFERMIGW"> F  </i>
   <i type="logical" name="ODDONLYGW"> F  </i>
   <i type="logical" name="EVENONLYGW"> F  </i>
   <i type="int" name="NKREDLFX">     1</i>
   <i type="int" name="NKREDLFY">     1</i>
   <i type="int" name="NKREDLFZ">     1</i>
   <i type="int" name="MAXMEM">  1800</i>
   <i type="int" name="TELESCOPE">     0</i>
   <i type="int" name="TAUPAR">     1</i>
   <i type="int" name="OMEGAPAR">    -1</i>
   <i name="LAMBDA">      1.00000000</i>
  </separator>
  <separator name="External order field" >
   <i name="OFIELD_KAPPA">      0.00000000</i>
   <v name="OFIELD_K">      0.00000000      0.00000000      0.00000000</v>
   <i name="OFIELD_Q6_NEAR">      0.00000000</i>
   <i name="OFIELD_Q6_FAR">      0.00000000</i>
   <i name="OFIELD_A">      0.00000000</i>
  </separator>
 </parameters>
 <atominfo>
  <atoms>       2 </atoms>
  <types>       2 </types>
  <array name="atoms" >
   <dimension dim="1">ion</dimension>
   <field type="string">element</field>
   <field type="int">atomtype</field>
   <set>
    <rc><c>In</c><c>   1</c></rc>
    <rc><c>As</c><c>   2</c></rc>
   </set>
  </array>
  <array name="atomtypes" >
   <dimension dim="1">type</dimension>
   <field type="int">atomspertype</field>
   <field type="string">element</field>
   <field>mass</field>
   <field>valence</field>
   <field type="string">pseudopotential</field>
   <set>
    <rc><c>   1</c><c>In</c><c>    114.82000000</c><c>      3.00000000</c><c>  PAW_PBE In 08Apr2002                  </c></rc>
    <rc><c>   1</c><c>As</c><c>     74.92200000</c><c>      5.00000000</c><c>  PAW_PBE As 22Sep2009                  </c></rc>
   </set>
  </array>
 </atominfo>
 <structure name="initialpos" >
  <crystal>
   <varray name="basis" >
    <v>       0.00000000       3.02920000       3.02920000 </v>
    <v>       3.02920000       0.00000000       3.02920000 </v>
    <v>       3.02920000       3.02920000       0.00000000 </v>
   </varray>
   <i name="volume">     55.59219731 </i>
   <varray name="rec_basis" >
    <v>      -0.16506008       0.16506008       0.16506008 </v>
    <v>       0.16506008      -0.16506008       0.16506008 </v>
    <v>       0.16506008       0.16506008      -0.16506008 </v>
   </varray>
  </crystal>
  <varray name="positions" >
   <v>       0.00000000       0.00000000       0.00000000 </v>
   <v>       0.25000000       0.25000000       0.25000000 </v>
  </varray>
 </structure>
 <calculation>
  <scstep>
   <time name="dav">    0.52    0.53</time>
   <time name="total">    1.31    1.40</time>
   <energy>
    <i name="alphaZ">      6.67624893 </i>
    <i name="ewald">   -213.84743004 </i>
    <i name="hartreedc">    -25.54878675 </i>
    <i name="XCdc">    -66.88262928 </i>
    <i name="pawpsdc">    532.69522183 </i>
    <i name="pawaedc">   -452.39149593 </i>
    <i name="eentropy">     -0.00159825 </i>
    <i name="bandstr">     13.81696020 </i>
    <i name="atom">    223.97621261 </i>
    <i name="e_fr_energy">     18.49270332 </i>
    <i name="e_wo_entrp">     18.49430157 </i>
    <i name="e_0_energy">     18.49350244 </i>
   </energy>
  </scstep>
  <scstep>
   <time name="dav">    0.58    0.58</time>
   <time name="total">    0.59    0.69</time>
   <energy>
    <i name="e_fr_energy">     -4.56600418 </i>
    <i name="e_wo_entrp">     -4.56547840 </i>
    <i name="e_0_energy">     -4.56574129 </i>
   </energy>
  </scstep>
  <scstep>
   <time name="dav">    0.56    0.56</time>
   <time name="total">    0.57    0.84</time>
   <energy>
    <i name="e_fr_energy">     -5.56431797 </i>
    <i name="e_wo_entrp">     -5.56259177 </i>
    <i name="e_0_energy">     -5.56345487 </i>
   </energy>
  </scstep>
  <scstep>
   <time name="dav">    0.57    0.57</time>
   <time name="total">    0.58    0.61</time>
   <energy>
    <i name="e_fr_energy">     -5.56885614 </i>
    <i name="e_wo_entrp">     -5.56713352 </i>
    <i name="e_0_energy">     -5.56799483 </i>
   </energy>
  </scstep>
  <scstep>
   <time name="dav">    0.56    0.56</time>
   <time name="total">    0.57    0.59</time>
   <energy>
    <i name="e_fr_energy">     -5.56887135 </i>
    <i name="e_wo_entrp">     -5.56714874 </i>
    <i name="e_0_energy">     -5.56801005 </i>
   </energy>
  </scstep>
  <scstep>
   <time name="diag">    0.13    0.13</time>
   <time name="diis">    0.24    0.24</time>
   <time name="orth">    0.01    0.01</time>
   <time name="total">    0.38    0.44</time>
   <energy>
    <i name="alphaZ">      6.67624893 </i>
    <i name="ewald">   -213.84743004 </i>
    <i name="hartreedc">    -25.54878675 </i>
    <i name="XCdc">    -66.88262928 </i>
    <i name="pawpsdc">    532.69522183 </i>
    <i name="pawaedc">   -452.39149593 </i>
    <i name="eentropy">     -0.00172261 </i>
    <i name="bandstr">    -10.24449019 </i>
    <i name="atom">    223.97621261 </i>
    <i name="e_fr_energy">     -5.56887143 </i>
    <i name="e_wo_entrp">     -5.56714882 </i>
    <i name="e_0_energy">     -5.56801012 </i>
   </energy>
  </scstep>
  <structure>
   <crystal>
    <varray name="basis" >
     <v>       0.00000000       3.02920000       3.02920000 </v>
     <v>       3.02920000       0.00000000       3.02920000 </v>
     <v>       3.02920000       3.02920000       0.00000000 </v>
    </varray>
    <i name="volume">     55.59219731 </i>
    <varray name="rec_basis" >
     <v>      -0.16506008       0.16506008       0.16506008 </v>
     <v>       0.16506008      -0.16506008       0.16506008 </v>
     <v>       0.16506008       0.16506008      -0.16506008 </v>
    </varray>
   </crystal>
   <varray name="positions" >
    <v>       0.00000000       0.00000000       0.00000000 </v>
    <v>       0.25000000       0.25000000       0.25000000 </v>
   </varray>
  </structure>
  <varray name="forces" >
   <v>       0.00000000      -0.00000000      -0.00000000 </v>
   <v>      -0.00000000       0.00000000       0.00000000 </v>
  </varray>
  <varray name="stress" >
   <v>     157.46176809      -0.00000000       0.00000000 </v>
   <v>       0.00000000     157.46176809       0.00000000 </v>
   <v>      -0.00000000      -0.00000000     157.46176809 </v>
  </varray>
  <energy>
   <i name="e_fr_energy">     -5.56887143 </i>
   <i name="e_wo_entrp">     -5.56801012 </i>
   <i name="e_0_energy">     -0.00172261 </i>
  </energy>
  <time name="totalsc">    9.53   10.77</time>
  <eigenvalues>
   <array>
    <dimension dim="1">band</dimension>
    <dimension dim="2">kpoint</dimension>
    <dimension dim="3">spin</dimension>
    <field>eigene</field>
    <field>occ</field>
    <set>
     <set comment="spin 1">
      <set comment="kpoint 1">
       <r>   -8.5440    1.0000 </r>
       <r>    3.0928    1.0000 </r>
       <r>    3.2620    0.8528 </r>
       <r>    3.2620    0.8528 </r>
       <r>    3.2620    0.8528 </r>
       <r>    7.2109    0.0000 </r>
       <r>    7.2109    0.0000 </r>
       <r>    7.2109    0.0000 </r>
       <r>   10.7876    0.0000 </r>
       <r>   12.7781    0.0000 </r>
       <r>   12.7781    0.0000 </r>
       <r>   13.6430    0.0000 </r>
       <r>   13.6430    0.0000 </r>
       <r>   13.6430    0.0000 </r>
       <r>   16.2027    0.0000 </r>
       <r>   24.6255    0.0000 </r>
       <r>   24.6258    0.0000 </r>
       <r>   24.6258    0.0000 </r>
       <r>   25.7586    0.0000 </r>
       <r>   25.7877    0.0000 </r>
      </set>
      <set comment="kpoint 2">
       <r>   -8.5428    1.0000 </r>
       <r>    3.0017    1.0000 </r>
       <r>    3.2577    0.8791 </r>
       <r>    3.2577    0.8791 </r>
       <r>    3.3531    0.0632 </r>
       <r>    7.2047    0.0000 </r>
       <r>    7.2168    0.0000 </r>
       <r>    7.2168    0.0000 </r>
       <r>   10.7971    0.0000 </r>
       <r>   12.7379    0.0000 </r>
       <r>   12.7792    0.0000 </r>
       <r>   13.6462    0.0000 </r>
       <r>   13.6462    0.0000 </r>
       <r>   13.6766    0.0000 </r>
       <r>   16.2170    0.0000 </r>
       <r>   24.5807    0.0000 </r>
       <r>   24.5813    0.0000 </r>
       <r>   24.6232    0.0000 </r>
       <r>   25.5868    0.0000 </r>
       <r>   25.7269    0.0000 </r>
      </set>
      <set comment="kpoint 3">
       <r>   -8.5391    1.0000 </r>
       <r>    2.8581    1.0000 </r>
       <r>    3.2449    0.9374 </r>
       <r>    3.2449    0.9374 </r>
       <r>    3.4967    0.0000 </r>
       <r>    7.1862    0.0000 </r>
       <r>    7.2342    0.0000 </r>
       <r>    7.2342    0.0000 </r>
       <r>   10.8255    0.0000 </r>
       <r>   12.6328    0.0000 </r>
       <r>   12.7825    0.0000 </r>
       <r>   13.6557    0.0000 </r>
       <r>   13.6557    0.0000 </r>
       <r>   13.7618    0.0000 </r>
       <r>   16.2598    0.0000 </r>
       <r>   24.4597    0.0000 </r>
       <r>   24.4600    0.0000 </r>
       <r>   24.6153    0.0000 </r>
       <r>   25.2744    0.0000 </r>
       <r>   25.6108    0.0000 </r>
      </set>
      <set comment="kpoint 4">
       <r>   -8.5329    1.0000 </r>
       <r>    2.7081    1.0000 </r>
       <r>    3.2238    0.9834 </r>
       <r>    3.2238    0.9834 </r>
       <r>    3.6466    0.0000 </r>
       <r>    7.1561    0.0000 </r>
       <r>    7.2629    0.0000 </r>
       <r>    7.2629    0.0000 </r>
       <r>   10.8719    0.0000 </r>
       <r>   12.4895    0.0000 </r>
       <r>   12.7881    0.0000 </r>
       <r>   13.6716    0.0000 </r>
       <r>   13.6716    0.0000 </r>
       <r>   13.8724    0.0000 </r>
       <r>   16.3311    0.0000 </r>
       <r>   24.2882    0.0000 </r>
       <r>   24.2885    0.0000 </r>
       <r>   24.5999    0.0000 </r>
       <r>   25.0179    0.0000 </r>
       <r>   25.5084    0.0000 </r>
      </set>
      <set comment="kpoint 5">
       <r>   -8.5242    1.0000 </r>
       <r>    2.5566    1.0000 </r>
       <r>    3.1948    0.9984 </r>
       <r>    3.1948    0.9984 </r>
       <r>    3.7978    0.0000 </r>
       <r>    7.1153    0.0000 </r>
       <r>    7.3025    0.0000 </r>
       <r>    7.3025    0.0000 </r>
       <r>   10.9353    0.0000 </r>
       <r>   12.3264    0.0000 </r>
       <r>   12.7959    0.0000 </r>
       <r>   13.6939    0.0000 </r>
       <r>   13.6939    0.0000 </r>
       <r>   13.9907    0.0000 </r>
       <r>   16.4303    0.0000 </r>
       <r>   24.0868    0.0000 </r>
       <r>   24.0869    0.0000 </r>
       <r>   24.5727    0.0000 </r>
       <r>   24.7638    0.0000 </r>
       <r>   25.3581    0.0000 </r>
      </set>
      <set comment="kpoint 6">
       <r>   -8.5131    1.0000 </r>
       <r>    2.4047    1.0000 </r>
       <r>    3.1586    1.0000 </r>
       <r>    3.1586    1.0000 </r>
       <r>    3.9491    0.0000 </r>
       <r>    7.0649    0.0000 </r>
       <r>    7.3526    0.0000 </r>
       <r>    7.3526    0.0000 </r>
       <r>   11.0140    0.0000 </r>
       <r>   12.1538    0.0000 </r>
       <r>   12.8060    0.0000 </r>
       <r>   13.7224    0.0000 </r>
       <r>   13.7224    0.0000 </r>
       <r>   14.1076    0.0000 </r>
       <r>   16.5566    0.0000 </r>
       <r>   23.8682    0.0000 </r>
       <r>   23.8682    0.0000 </r>
       <r>   24.5133    0.0000 </r>
       <r>   24.5275    0.0000 </r>
       <r>   25.2553    0.0000 </r>
      </set>
      <set comment="kpoint 7">
       <r>   -8.4995    1.0000 </r>
       <r>    2.2529    1.0000 </r>
       <r>    3.1156    1.0000 </r>
       <r>    3.1156    1.0000 </r>
       <r>    4.0999    0.0000 </r>
       <r>    7.0064    0.0000 </r>
       <r>    7.4123    0.0000 </r>
       <r>    7.4123    0.0000 </r>
       <r>   11.1056    0.0000 </r>
       <r>   11.9785    0.0000 </r>
       <r>   12.8182    0.0000 </r>
       <r>   13.7574    0.0000 </r>
       <r>   13.7574    0.0000 </r>
       <r>   14.2191    0.0000 </r>
       <r>   16.7085    0.0000 </r>
       <r>   23.6395    0.0000 </r>
       <r>   23.6397    0.0000 </r>
       <r>   24.2655    0.0000 </r>
       <r>   24.4568    0.0000 </r>
       <r>   25.1571    0.0000 </r>
      </set>
      <set comment="kpoint 8">
       <r>   -8.4835    1.0000 </r>
       <r>    2.1014    1.0000 </r>
       <r>    3.0666    1.0000 </r>
       <r>    3.0666    1.0000 </r>
       <r>    4.2497    0.0000 </r>
       <r>    6.9409    0.0000 </r>
       <r>    7.4812    0.0000 </r>
       <r>    7.4812    0.0000 </r>
       <r>   11.2059    0.0000 </r>
       <r>   11.8070    0.0000 </r>
       <r>   12.8327    0.0000 </r>
       <r>   13.7986    0.0000 </r>
       <r>   13.7986    0.0000 </r>
       <r>   14.3239    0.0000 </r>
       <r>   16.8842    0.0000 </r>
       <r>   23.4048    0.0000 </r>
       <r>   23.4048    0.0000 </r>
       <r>   24.0199    0.0000 </r>
       <r>   24.3542    0.0000 </r>
       <r>   25.0824    0.0000 </r>
      </set>
      <set comment="kpoint 9">
       <r>   -8.4650    1.0000 </r>
       <r>    1.9502    1.0000 </r>
       <r>    3.0123    1.0000 </r>
       <r>    3.0123    1.0000 </r>
       <r>    4.3981    0.0000 </r>
       <r>    6.8698    0.0000 </r>
       <r>    7.5584    0.0000 </r>
       <r>    7.5584    0.0000 </r>
       <r>   11.3006    0.0000 </r>
       <r>   11.6546    0.0000 </r>
       <r>   12.8494    0.0000 </r>
       <r>   13.8462    0.0000 </r>
       <r>   13.8462    0.0000 </r>
       <r>   14.4220    0.0000 </r>
       <r>   17.0813    0.0000 </r>
       <r>   23.1665    0.0000 </r>
       <r>   23.1665    0.0000 </r>
       <r>   23.7771    0.0000 </r>
       <r>   24.2215    0.0000 </r>
       <r>   25.0402    0.0000 </r>
      </set>
      <set comment="kpoint 10">
       <r>   -8.4442    1.0000 </r>
       <r>    1.7996    1.0000 </r>
       <r>    2.9533    1.0000 </r>
       <r>    2.9533    1.0000 </r>
       <r>    4.5447    0.0000 </r>
       <r>    6.7943    0.0000 </r>
       <r>    7.6432    0.0000 </r>
       <r>    7.6432    0.0000 </r>
       <r>   11.3201    0.0000 </r>
       <r>   11.5914    0.0000 </r>
       <r>   12.8683    0.0000 </r>
       <r>   13.9000    0.0000 </r>
       <r>   13.9000    0.0000 </r>
       <r>   14.5143    0.0000 </r>
       <r>   17.2974    0.0000 </r>
       <r>   22.9262    0.0000 </r>
       <r>   22.9262    0.0000 </r>
       <r>   23.5371    0.0000 </r>
       <r>   24.0648    0.0000 </r>
       <r>   25.0180    0.0000 </r>
      </set>
      <set comment="kpoint 11">
       <r>   -8.4210    1.0000 </r>
       <r>    1.6496    1.0000 </r>
       <r>    2.8905    1.0000 </r>
       <r>    2.8905    1.0000 </r>
       <r>    4.6890    0.0000 </r>
       <r>    6.7154    0.0000 </r>
       <r>    7.7351    0.0000 </r>
       <r>    7.7351    0.0000 </r>
       <r>   11.2070    0.0000 </r>
       <r>   11.6751    0.0000 </r>
       <r>   12.8895    0.0000 </r>
       <r>   13.9602    0.0000 </r>
       <r>   13.9602    0.0000 </r>
       <r>   14.6022    0.0000 </r>
       <r>   17.5301    0.0000 </r>
       <r>   22.6849    0.0000 </r>
       <r>   22.6849    0.0000 </r>
       <r>   23.2999    0.0000 </r>
       <r>   23.8906    0.0000 </r>
       <r>   25.0234    0.0000 </r>
      </set>
      <set comment="kpoint 12">
       <r>   -8.3954    1.0000 </r>
       <r>    1.5002    1.0000 </r>
       <r>    2.8243    1.0000 </r>
       <r>    2.8243    1.0000 </r>
       <r>    4.8305    0.0000 </r>
       <r>    6.6341    0.0000 </r>
       <r>    7.8332    0.0000 </r>
       <r>    7.8332    0.0000 </r>
       <r>   11.0566    0.0000 </r>
       <r>   11.8108    0.0000 </r>
       <r>   12.9128    0.0000 </r>
       <r>   14.0266    0.0000 </r>
       <r>   14.0266    0.0000 </r>
       <r>   14.6870    0.0000 </r>
       <r>   17.7773    0.0000 </r>
       <r>   22.4432    0.0000 </r>
       <r>   22.4432    0.0000 </r>
       <r>   23.0655    0.0000 </r>
       <r>   23.7041    0.0000 </r>
       <r>   25.0147    0.0000 </r>
      </set>
      <set comment="kpoint 13">
       <r>   -8.3676    1.0000 </r>
       <r>    1.3514    1.0000 </r>
       <r>    2.7555    1.0000 </r>
       <r>    2.7555    1.0000 </r>
       <r>    4.9685    0.0000 </r>
       <r>    6.5512    0.0000 </r>
       <r>    7.9370    0.0000 </r>
       <r>    7.9370    0.0000 </r>
       <r>   10.9035    0.0000 </r>
       <r>   11.9638    0.0000 </r>
       <r>   12.9384    0.0000 </r>
       <r>   14.0993    0.0000 </r>
       <r>   14.0993    0.0000 </r>
       <r>   14.7700    0.0000 </r>
       <r>   18.0370    0.0000 </r>
       <r>   22.2016    0.0000 </r>
       <r>   22.2016    0.0000 </r>
       <r>   22.8339    0.0000 </r>
       <r>   23.5087    0.0000 </r>
       <r>   25.0296    0.0000 </r>
      </set>
      <set comment="kpoint 14">
       <r>   -8.3374    1.0000 </r>
       <r>    1.2034    1.0000 </r>
       <r>    2.6846    1.0000 </r>
       <r>    2.6847    1.0000 </r>
       <r>    5.1023    0.0000 </r>
       <r>    6.4675    0.0000 </r>
       <r>    8.0460    0.0000 </r>
       <r>    8.0460    0.0000 </r>
       <r>   10.7553    0.0000 </r>
       <r>   12.1270    0.0000 </r>
       <r>   12.9661    0.0000 </r>
       <r>   14.1781    0.0000 </r>
       <r>   14.1781    0.0000 </r>
       <r>   14.8523    0.0000 </r>
       <r>   18.3074    0.0000 </r>
       <r>   21.9605    0.0000 </r>
       <r>   21.9605    0.0000 </r>
       <r>   22.6053    0.0000 </r>
       <r>   23.3070    0.0000 </r>
       <r>   25.0502    0.0000 </r>
      </set>
      <set comment="kpoint 15">
       <r>   -8.3050    1.0000 </r>
       <r>    1.0562    1.0000 </r>
       <r>    2.6122    1.0000 </r>
       <r>    2.6122    1.0000 </r>
       <r>    5.2312    0.0000 </r>
       <r>    6.3837    0.0000 </r>
       <r>    8.1595    0.0000 </r>
       <r>    8.1595    0.0000 </r>
       <r>   10.6149    0.0000 </r>
       <r>   12.2979    0.0000 </r>
       <r>   12.9961    0.0000 </r>
       <r>   14.2632    0.0000 </r>
       <r>   14.2632    0.0000 </r>
       <r>   14.9350    0.0000 </r>
       <r>   18.5869    0.0000 </r>
       <r>   21.7201    0.0000 </r>
       <r>   21.7201    0.0000 </r>
       <r>   22.3797    0.0000 </r>
       <r>   23.1008    0.0000 </r>
       <r>   25.0698    0.0000 </r>
      </set>
      <set comment="kpoint 16">
       <r>   -8.2705    1.0000 </r>
       <r>    0.9099    1.0000 </r>
       <r>    2.5386    1.0000 </r>
       <r>    2.5386    1.0000 </r>
       <r>    5.3541    0.0000 </r>
       <r>    6.3002    0.0000 </r>
       <r>    8.2772    0.0000 </r>
       <r>    8.2772    0.0000 </r>
       <r>   10.4840    0.0000 </r>
       <r>   12.4750    0.0000 </r>
       <r>   13.0282    0.0000 </r>
       <r>   14.3544    0.0000 </r>
       <r>   14.3544    0.0000 </r>
       <r>   15.0190    0.0000 </r>
       <r>   18.8744    0.0000 </r>
       <r>   21.4808    0.0000 </r>
       <r>   21.4808    0.0000 </r>
       <r>   22.1570    0.0000 </r>
       <r>   22.8914    0.0000 </r>
       <r>   25.0981    0.0000 </r>
      </set>
      <set comment="kpoint 17">
       <r>   -8.2338    1.0000 </r>
       <r>    0.7644    1.0000 </r>
       <r>    2.4644    1.0000 </r>
       <r>    2.4644    1.0000 </r>
       <r>    5.4701    0.0000 </r>
       <r>    6.2178    0.0000 </r>
       <r>    8.3987    0.0000 </r>
       <r>    8.3987    0.0000 </r>
       <r>   10.3643    0.0000 </r>
       <r>   12.6572    0.0000 </r>
       <r>   13.0625    0.0000 </r>
       <r>   14.4517    0.0000 </r>
       <r>   14.4517    0.0000 </r>
       <r>   15.1050    0.0000 </r>
       <r>   19.1684    0.0000 </r>
       <r>   21.2426    0.0000 </r>
       <r>   21.2426    0.0000 </r>
       <r>   21.9374    0.0000 </r>
       <r>   22.6803    0.0000 </r>
       <r>   25.1315    0.0000 </r>
      </set>
      <set comment="kpoint 18">
       <r>   -8.1950    1.0000 </r>
       <r>    0.6199    1.0000 </r>
       <r>    2.3899    1.0000 </r>
       <r>    2.3899    1.0000 </r>
       <r>    5.5777    0.0000 </r>
       <r>    6.1369    0.0000 </r>
       <r>    8.5234    0.0000 </r>
       <r>    8.5234    0.0000 </r>
       <r>   10.2571    0.0000 </r>
       <r>   12.8438    0.0000 </r>
       <r>   13.0989    0.0000 </r>
       <r>   14.5550    0.0000 </r>
       <r>   14.5550    0.0000 </r>
       <r>   15.1937    0.0000 </r>
       <r>   19.4677    0.0000 </r>
       <r>   21.0057    0.0000 </r>
       <r>   21.0057    0.0000 </r>
       <r>   21.7210    0.0000 </r>
       <r>   22.4686    0.0000 </r>
       <r>   25.1655    0.0000 </r>
      </set>
      <set comment="kpoint 19">
       <r>   -8.1542    1.0000 </r>
       <r>    0.4765    1.0000 </r>
       <r>    2.3154    1.0000 </r>
       <r>    2.3154    1.0000 </r>
       <r>    5.6753    0.0000 </r>
       <r>    6.0587    0.0000 </r>
       <r>    8.6511    0.0000 </r>
       <r>    8.6511    0.0000 </r>
       <r>   10.1638    0.0000 </r>
       <r>   13.0340    0.0000 </r>
       <r>   13.1375    0.0000 </r>
       <r>   14.6644    0.0000 </r>
       <r>   14.6644    0.0000 </r>
       <r>   15.2857    0.0000 </r>
       <r>   19.7707    0.0000 </r>
       <r>   20.7702    0.0000 </r>
       <r>   20.7702    0.0000 </r>
       <r>   21.5076    0.0000 </r>
       <r>   22.2579    0.0000 </r>
       <r>   25.2050    0.0000 </r>
      </set>
      <set comment="kpoint 20">
       <r>   -8.1114    1.0000 </r>
       <r>    0.3341    1.0000 </r>
       <r>    2.2413    1.0000 </r>
       <r>    2.2413    1.0000 </r>
       <r>    5.7592    0.0000 </r>
       <r>    5.9859    0.0000 </r>
       <r>    8.7816    0.0000 </r>
       <r>    8.7816    0.0000 </r>
       <r>   10.0856    0.0000 </r>
       <r>   13.1782    0.0000 </r>
       <r>   13.2270    0.0000 </r>
       <r>   14.7797    0.0000 </r>
       <r>   14.7797    0.0000 </r>
       <r>   15.3816    0.0000 </r>
       <r>   20.0752    0.0000 </r>
       <r>   20.5363    0.0000 </r>
       <r>   20.5363    0.0000 </r>
       <r>   21.2975    0.0000 </r>
       <r>   22.0504    0.0000 </r>
       <r>   25.2493    0.0000 </r>
      </set>
      <set comment="kpoint 21">
       <r>   -8.0667    1.0000 </r>
       <r>    0.1928    1.0000 </r>
       <r>    2.1679    1.0000 </r>
       <r>    2.1679    1.0000 </r>
       <r>    5.8144    0.0000 </r>
       <r>    5.9326    0.0000 </r>
       <r>    8.9144    0.0000 </r>
       <r>    8.9144    0.0000 </r>
       <r>   10.0237    0.0000 </r>
       <r>   13.2210    0.0000 </r>
       <r>   13.4220    0.0000 </r>
       <r>   14.9008    0.0000 </r>
       <r>   14.9008    0.0000 </r>
       <r>   15.4819    0.0000 </r>
       <r>   20.3040    0.0000 </r>
       <r>   20.3040    0.0000 </r>
       <r>   20.3770    0.0000 </r>
       <r>   21.0906    0.0000 </r>
       <r>   21.8503    0.0000 </r>
       <r>   25.3031    0.0000 </r>
      </set>
      <set comment="kpoint 22">
       <r>   -8.0203    1.0000 </r>
       <r>    0.0528    1.0000 </r>
       <r>    2.0954    1.0000 </r>
       <r>    2.0954    1.0000 </r>
       <r>    5.7947    0.0000 </r>
       <r>    5.9444    0.0000 </r>
       <r>    9.0494    0.0000 </r>
       <r>    9.0494    0.0000 </r>
       <r>    9.9791    0.0000 </r>
       <r>   13.2658    0.0000 </r>
       <r>   13.6183    0.0000 </r>
       <r>   15.0278    0.0000 </r>
       <r>   15.0278    0.0000 </r>
       <r>   15.5871    0.0000 </r>
       <r>   20.0735    0.0000 </r>
       <r>   20.0736    0.0000 </r>
       <r>   20.6648    0.0000 </r>
       <r>   20.8869    0.0000 </r>
       <r>   21.6688    0.0000 </r>
       <r>   25.3522    0.0000 </r>
      </set>
      <set comment="kpoint 23">
       <r>   -7.9721    1.0000 </r>
       <r>   -0.0858    1.0000 </r>
       <r>    2.0240    1.0000 </r>
       <r>    2.0240    1.0000 </r>
       <r>    5.7337    0.0000 </r>
       <r>    5.9871    0.0000 </r>
       <r>    9.1863    0.0000 </r>
       <r>    9.1863    0.0000 </r>
       <r>    9.9525    0.0000 </r>
       <r>   13.3127    0.0000 </r>
       <r>   13.8149    0.0000 </r>
       <r>   15.1604    0.0000 </r>
       <r>   15.1604    0.0000 </r>
       <r>   15.6977    0.0000 </r>
       <r>   19.8449    0.0000 </r>
       <r>   19.8449    0.0000 </r>
       <r>   20.6867    0.0000 </r>
       <r>   20.8975    0.0000 </r>
       <r>   21.5471    0.0000 </r>
       <r>   25.4011    0.0000 </r>
      </set>
      <set comment="kpoint 24">
       <r>   -7.9223    1.0000 </r>
       <r>   -0.2230    1.0000 </r>
       <r>    1.9539    1.0000 </r>
       <r>    1.9539    1.0000 </r>
       <r>    5.6674    0.0000 </r>
       <r>    6.0245    0.0000 </r>
       <r>    9.3250    0.0000 </r>
       <r>    9.3250    0.0000 </r>
       <r>    9.9445    0.0000 </r>
       <r>   13.3617    0.0000 </r>
       <r>   14.0110    0.0000 </r>
       <r>   15.2987    0.0000 </r>
       <r>   15.2987    0.0000 </r>
       <r>   15.8144    0.0000 </r>
       <r>   19.6183    0.0000 </r>
       <r>   19.6183    0.0000 </r>
       <r>   20.4898    0.0000 </r>
       <r>   20.9582    0.0000 </r>
       <r>   21.6021    0.0000 </r>
       <r>   25.4630    0.0000 </r>
      </set>
      <set comment="kpoint 25">
       <r>   -7.8711    1.0000 </r>
       <r>   -0.3586    1.0000 </r>
       <r>    1.8854    1.0000 </r>
       <r>    1.8854    1.0000 </r>
       <r>    5.6016    0.0000 </r>
       <r>    6.0508    0.0000 </r>
       <r>    9.4652    0.0000 </r>
       <r>    9.4652    0.0000 </r>
       <r>    9.9548    0.0000 </r>
       <r>   13.4125    0.0000 </r>
       <r>   14.2053    0.0000 </r>
       <r>   15.4424    0.0000 </r>
       <r>   15.4424    0.0000 </r>
       <r>   15.9375    0.0000 </r>
       <r>   19.3937    0.0000 </r>
       <r>   19.3937    0.0000 </r>
       <r>   20.2963    0.0000 </r>
       <r>   20.8449    0.0000 </r>
       <r>   21.8356    0.0000 </r>
       <r>   25.5264    0.0000 </r>
      </set>
      <set comment="kpoint 26">
       <r>   -7.8184    1.0000 </r>
       <r>   -0.4925    1.0000 </r>
       <r>    1.8185    1.0000 </r>
       <r>    1.8185    1.0000 </r>
       <r>    5.5377    0.0000 </r>
       <r>    6.0653    0.0000 </r>
       <r>    9.6068    0.0000 </r>
       <r>    9.6068    0.0000 </r>
       <r>    9.9833    0.0000 </r>
       <r>   13.4653    0.0000 </r>
       <r>   14.3968    0.0000 </r>
       <r>   15.5915    0.0000 </r>
       <r>   15.5915    0.0000 </r>
       <r>   16.0678    0.0000 </r>
       <r>   19.1715    0.0000 </r>
       <r>   19.1715    0.0000 </r>
       <r>   20.1064    0.0000 </r>
       <r>   20.6763    0.0000 </r>
       <r>   22.1289    0.0000 </r>
       <r>   25.6045    0.0000 </r>
      </set>
      <set comment="kpoint 27">
       <r>   -7.7645    1.0000 </r>
       <r>   -0.6246    1.0000 </r>
       <r>    1.7535    1.0000 </r>
       <r>    1.7535    1.0000 </r>
       <r>    5.4762    0.0000 </r>
       <r>    6.0681    0.0000 </r>
       <r>    9.7496    0.0000 </r>
       <r>    9.7496    0.0000 </r>
       <r>   10.0289    0.0000 </r>
       <r>   13.5200    0.0000 </r>
       <r>   14.5841    0.0000 </r>
       <r>   15.7459    0.0000 </r>
       <r>   15.7459    0.0000 </r>
       <r>   16.2057    0.0000 </r>
       <r>   18.9516    0.0000 </r>
       <r>   18.9516    0.0000 </r>
       <r>   19.9202    0.0000 </r>
       <r>   20.4950    0.0000 </r>
       <r>   22.4391    0.0000 </r>
       <r>   25.6885    0.0000 </r>
      </set>
      <set comment="kpoint 28">
       <r>   -7.7096    1.0000 </r>
       <r>   -0.7546    1.0000 </r>
       <r>    1.6905    1.0000 </r>
       <r>    1.6905    1.0000 </r>
       <r>    5.4174    0.0000 </r>
       <r>    6.0603    0.0000 </r>
       <r>    9.8935    0.0000 </r>
       <r>    9.8935    0.0000 </r>
       <r>   10.0906    0.0000 </r>
       <r>   13.5764    0.0000 </r>
       <r>   14.7659    0.0000 </r>
       <r>   15.9052    0.0000 </r>
       <r>   15.9052    0.0000 </r>
       <r>   16.3517    0.0000 </r>
       <r>   18.7344    0.0000 </r>
       <r>   18.7344    0.0000 </r>
       <r>   19.7376    0.0000 </r>
       <r>   20.3132    0.0000 </r>
       <r>   22.7538    0.0000 </r>
       <r>   25.7908    0.0000 </r>
      </set>
      <set comment="kpoint 29">
       <r>   -7.6536    1.0000 </r>
       <r>   -0.8825    1.0000 </r>
       <r>    1.6296    1.0000 </r>
       <r>    1.6296    1.0000 </r>
       <r>    5.3613    0.0000 </r>
       <r>    6.0430    0.0000 </r>
       <r>   10.0383    0.0000 </r>
       <r>   10.0383    0.0000 </r>
       <r>   10.1670    0.0000 </r>
       <r>   13.6345    0.0000 </r>
       <r>   14.9405    0.0000 </r>
       <r>   16.0692    0.0000 </r>
       <r>   16.0692    0.0000 </r>
       <r>   16.5061    0.0000 </r>
       <r>   18.5201    0.0000 </r>
       <r>   18.5201    0.0000 </r>
       <r>   19.5587    0.0000 </r>
       <r>   20.1358    0.0000 </r>
       <r>   23.0675    0.0000 </r>
       <r>   25.8406    0.0000 </r>
      </set>
      <set comment="kpoint 30">
       <r>   -7.5970    1.0000 </r>
       <r>   -1.0080    1.0000 </r>
       <r>    1.5709    1.0000 </r>
       <r>    1.5709    1.0000 </r>
       <r>    5.3081    0.0000 </r>
       <r>    6.0176    0.0000 </r>
       <r>   10.1838    0.0000 </r>
       <r>   10.1838    0.0000 </r>
       <r>   10.2564    0.0000 </r>
       <r>   13.6943    0.0000 </r>
       <r>   15.1063    0.0000 </r>
       <r>   16.2375    0.0000 </r>
       <r>   16.2375    0.0000 </r>
       <r>   16.6689    0.0000 </r>
       <r>   18.3092    0.0000 </r>
       <r>   18.3092    0.0000 </r>
       <r>   19.3838    0.0000 </r>
       <r>   19.9661    0.0000 </r>
       <r>   23.3764    0.0000 </r>
       <r>   25.6984    0.0000 </r>
      </set>
      <set comment="kpoint 31">
       <r>   -7.5398    1.0000 </r>
       <r>   -1.1309    1.0000 </r>
       <r>    1.5146    1.0000 </r>
       <r>    1.5146    1.0000 </r>
       <r>    5.2579    0.0000 </r>
       <r>    5.9854    0.0000 </r>
       <r>   10.3300    0.0000 </r>
       <r>   10.3300    0.0000 </r>
       <r>   10.3574    0.0000 </r>
       <r>   13.7556    0.0000 </r>
       <r>   15.2618    0.0000 </r>
       <r>   16.4093    0.0000 </r>
       <r>   16.4093    0.0000 </r>
       <r>   16.8400    0.0000 </r>
       <r>   18.1025    0.0000 </r>
       <r>   18.1025    0.0000 </r>
       <r>   19.2129    0.0000 </r>
       <r>   19.8069    0.0000 </r>
       <r>   23.6768    0.0000 </r>
       <r>   25.5234    0.0000 </r>
      </set>
      <set comment="kpoint 32">
       <r>   -7.4822    1.0000 </r>
       <r>   -1.2509    1.0000 </r>
       <r>    1.4606    1.0000 </r>
       <r>    1.4606    1.0000 </r>
       <r>    5.2107    0.0000 </r>
       <r>    5.9479    0.0000 </r>
       <r>   10.4682    0.0000 </r>
       <r>   10.4765    0.0000 </r>
       <r>   10.4765    0.0000 </r>
       <r>   13.8182    0.0000 </r>
       <r>   15.4050    0.0000 </r>
       <r>   16.5834    0.0000 </r>
       <r>   16.5834    0.0000 </r>
       <r>   17.0187    0.0000 </r>
       <r>   17.9015    0.0000 </r>
       <r>   17.9015    0.0000 </r>
       <r>   19.0462    0.0000 </r>
       <r>   19.6611    0.0000 </r>
       <r>   23.9651    0.0000 </r>
       <r>   25.2706    0.0000 </r>
      </set>
      <set comment="kpoint 33">
       <r>   -7.4246    1.0000 </r>
       <r>   -1.3678    1.0000 </r>
       <r>    1.4092    1.0000 </r>
       <r>    1.4092    1.0000 </r>
       <r>    5.1665    0.0000 </r>
       <r>    5.9065    0.0000 </r>
       <r>   10.5874    0.0000 </r>
       <r>   10.6232    0.0000 </r>
       <r>   10.6232    0.0000 </r>
       <r>   13.8821    0.0000 </r>
       <r>   15.5342    0.0000 </r>
       <r>   16.7560    0.0000 </r>
       <r>   16.7560    0.0000 </r>
       <r>   17.2040    0.0000 </r>
       <r>   17.7097    0.0000 </r>
       <r>   17.7097    0.0000 </r>
       <r>   18.8838    0.0000 </r>
       <r>   19.5321    0.0000 </r>
       <r>   24.2374    0.0000 </r>
       <r>   24.9601    0.0000 </r>
      </set>
      <set comment="kpoint 34">
       <r>   -7.3671    1.0000 </r>
       <r>   -1.4814    1.0000 </r>
       <r>    1.3603    1.0000 </r>
       <r>    1.3603    1.0000 </r>
       <r>    5.1253    0.0000 </r>
       <r>    5.8621    0.0000 </r>
       <r>   10.7133    0.0000 </r>
       <r>   10.7700    0.0000 </r>
       <r>   10.7700    0.0000 </r>
       <r>   13.9470    0.0000 </r>
       <r>   15.6472    0.0000 </r>
       <r>   16.9160    0.0000 </r>
       <r>   16.9160    0.0000 </r>
       <r>   17.3942    0.0000 </r>
       <r>   17.5386    0.0000 </r>
       <r>   17.5386    0.0000 </r>
       <r>   18.7259    0.0000 </r>
       <r>   19.4239    0.0000 </r>
       <r>   24.4867    0.0000 </r>
       <r>   24.6708    0.0000 </r>
      </set>
      <set comment="kpoint 35">
       <r>   -7.3101    1.0000 </r>
       <r>   -1.5912    1.0000 </r>
       <r>    1.3141    1.0000 </r>
       <r>    1.3141    1.0000 </r>
       <r>    5.0872    0.0000 </r>
       <r>    5.8161    0.0000 </r>
       <r>   10.8447    0.0000 </r>
       <r>   10.9164    0.0000 </r>
       <r>   10.9164    0.0000 </r>
       <r>   14.0127    0.0000 </r>
       <r>   15.7420    0.0000 </r>
       <r>   17.0163    0.0000 </r>
       <r>   17.0163    0.0000 </r>
       <r>   17.4353    0.0000 </r>
       <r>   17.4353    0.0000 </r>
       <r>   17.5871    0.0000 </r>
       <r>   18.5728    0.0000 </r>
       <r>   19.3411    0.0000 </r>
       <r>   24.3814    0.0000 </r>
       <r>   24.6345    0.0000 </r>
      </set>
      <set comment="kpoint 36">
       <r>   -7.2538    1.0000 </r>
       <r>   -1.6971    1.0000 </r>
       <r>    1.2706    1.0000 </r>
       <r>    1.2706    1.0000 </r>
       <r>    5.0521    0.0000 </r>
       <r>    5.7692    0.0000 </r>
       <r>   10.9801    0.0000 </r>
       <r>   11.0622    0.0000 </r>
       <r>   11.0622    0.0000 </r>
       <r>   14.0790    0.0000 </r>
       <r>   15.8165    0.0000 </r>
       <r>   16.9660    0.0000 </r>
       <r>   16.9660    0.0000 </r>
       <r>   17.4910    0.0000 </r>
       <r>   17.4910    0.0000 </r>
       <r>   17.7799    0.0000 </r>
       <r>   18.4247    0.0000 </r>
       <r>   19.2889    0.0000 </r>
       <r>   24.0664    0.0000 </r>
       <r>   24.3806    0.0000 </r>
      </set>
      <set comment="kpoint 37">
       <r>   -7.1987    1.0000 </r>
       <r>   -1.7985    1.0000 </r>
       <r>    1.2298    1.0000 </r>
       <r>    1.2298    1.0000 </r>
       <r>    5.0200    0.0000 </r>
       <r>    5.7224    0.0000 </r>
       <r>   11.1182    0.0000 </r>
       <r>   11.2070    0.0000 </r>
       <r>   11.2070    0.0000 </r>
       <r>   14.1455    0.0000 </r>
       <r>   15.8688    0.0000 </r>
       <r>   16.8206    0.0000 </r>
       <r>   16.8206    0.0000 </r>
       <r>   17.6505    0.0000 </r>
       <r>   17.6505    0.0000 </r>
       <r>   17.9690    0.0000 </r>
       <r>   18.2819    0.0000 </r>
       <r>   19.2727    0.0000 </r>
       <r>   23.7861    0.0000 </r>
       <r>   24.1158    0.0000 </r>
      </set>
      <set comment="kpoint 38">
       <r>   -7.1451    1.0000 </r>
       <r>   -1.8951    1.0000 </r>
       <r>    1.1919    1.0000 </r>
       <r>    1.1919    1.0000 </r>
       <r>    4.9909    0.0000 </r>
       <r>    5.6764    0.0000 </r>
       <r>   11.2578    0.0000 </r>
       <r>   11.3503    0.0000 </r>
       <r>   11.3503    0.0000 </r>
       <r>   14.2119    0.0000 </r>
       <r>   15.8980    0.0000 </r>
       <r>   16.6526    0.0000 </r>
       <r>   16.6526    0.0000 </r>
       <r>   17.8416    0.0000 </r>
       <r>   17.8416    0.0000 </r>
       <r>   18.1449    0.0000 </r>
       <r>   18.1509    0.0000 </r>
       <r>   19.2976    0.0000 </r>
       <r>   23.5008    0.0000 </r>
       <r>   23.8503    0.0000 </r>
      </set>
      <set comment="kpoint 39">
       <r>   -7.0933    1.0000 </r>
       <r>   -1.9864    1.0000 </r>
       <r>    1.1569    1.0000 </r>
       <r>    1.1569    1.0000 </r>
       <r>    4.9646    0.0000 </r>
       <r>    5.6317    0.0000 </r>
       <r>   11.3974    0.0000 </r>
       <r>   11.4916    0.0000 </r>
       <r>   11.4916    0.0000 </r>
       <r>   14.2777    0.0000 </r>
       <r>   15.9040    0.0000 </r>
       <r>   16.4813    0.0000 </r>
       <r>   16.4813    0.0000 </r>
       <r>   18.0141    0.0000 </r>
       <r>   18.0455    0.0000 </r>
       <r>   18.0455    0.0000 </r>
       <r>   18.3229    0.0000 </r>
       <r>   19.3661    0.0000 </r>
       <r>   23.2209    0.0000 </r>
       <r>   23.5823    0.0000 </r>
      </set>
      <set comment="kpoint 40">
       <r>   -7.0439    1.0000 </r>
       <r>   -2.0722    1.0000 </r>
       <r>    1.1248    1.0000 </r>
       <r>    1.1248    1.0000 </r>
       <r>    4.9412    0.0000 </r>
       <r>    5.5891    0.0000 </r>
       <r>   11.5357    0.0000 </r>
       <r>   11.6300    0.0000 </r>
       <r>   11.6300    0.0000 </r>
       <r>   14.3425    0.0000 </r>
       <r>   15.8885    0.0000 </r>
       <r>   16.3124    0.0000 </r>
       <r>   16.3124    0.0000 </r>
       <r>   17.8900    0.0000 </r>
       <r>   18.2571    0.0000 </r>
       <r>   18.2571    0.0000 </r>
       <r>   18.4848    0.0000 </r>
       <r>   19.4773    0.0000 </r>
       <r>   22.9444    0.0000 </r>
       <r>   23.3128    0.0000 </r>
      </set>
      <set comment="kpoint 41">
       <r>   -6.9972    1.0000 </r>
       <r>   -2.1518    1.0000 </r>
       <r>    1.0956    1.0000 </r>
       <r>    1.0956    1.0000 </r>
       <r>    4.9206    0.0000 </r>
       <r>    5.5490    0.0000 </r>
       <r>   11.6711    0.0000 </r>
       <r>   11.7647    0.0000 </r>
       <r>   11.7647    0.0000 </r>
       <r>   14.4055    0.0000 </r>
       <r>   15.8543    0.0000 </r>
       <r>   16.1486    0.0000 </r>
       <r>   16.1486    0.0000 </r>
       <r>   17.7732    0.0000 </r>
       <r>   18.4744    0.0000 </r>
       <r>   18.4744    0.0000 </r>
       <r>   18.6392    0.0000 </r>
       <r>   19.6256    0.0000 </r>
       <r>   22.7090    0.0000 </r>
       <r>   23.0430    0.0000 </r>
      </set>
      <set comment="kpoint 42">
       <r>   -6.9537    1.0000 </r>
       <r>   -2.2247    1.0000 </r>
       <r>    1.0694    1.0000 </r>
       <r>    1.0694    1.0000 </r>
       <r>    4.9027    0.0000 </r>
       <r>    5.5117    0.0000 </r>
       <r>   11.8020    0.0000 </r>
       <r>   11.8946    0.0000 </r>
       <r>   11.8946    0.0000 </r>
       <r>   14.4661    0.0000 </r>
       <r>   15.8051    0.0000 </r>
       <r>   15.9921    0.0000 </r>
       <r>   15.9921    0.0000 </r>
       <r>   17.6645    0.0000 </r>
       <r>   18.6964    0.0000 </r>
       <r>   18.6964    0.0000 </r>
       <r>   18.7908    0.0000 </r>
       <r>   19.8024    0.0000 </r>
       <r>   22.4168    0.0000 </r>
       <r>   22.7738    0.0000 </r>
      </set>
      <set comment="kpoint 43">
       <r>   -6.9139    1.0000 </r>
       <r>   -2.2906    1.0000 </r>
       <r>    1.0462    1.0000 </r>
       <r>    1.0462    1.0000 </r>
       <r>    4.8872    0.0000 </r>
       <r>    5.4779    0.0000 </r>
       <r>   11.9265    0.0000 </r>
       <r>   12.0180    0.0000 </r>
       <r>   12.0180    0.0000 </r>
       <r>   14.5234    0.0000 </r>
       <r>   15.7456    0.0000 </r>
       <r>   15.8446    0.0000 </r>
       <r>   15.8446    0.0000 </r>
       <r>   17.5648    0.0000 </r>
       <r>   18.9223    0.0000 </r>
       <r>   18.9223    0.0000 </r>
       <r>   18.9435    0.0000 </r>
       <r>   19.9983    0.0000 </r>
       <r>   22.1734    0.0000 </r>
       <r>   22.5056    0.0000 </r>
      </set>
      <set comment="kpoint 44">
       <r>   -6.8782    1.0000 </r>
       <r>   -2.3490    1.0000 </r>
       <r>    1.0261    1.0000 </r>
       <r>    1.0261    1.0000 </r>
       <r>    4.8743    0.0000 </r>
       <r>    5.4477    0.0000 </r>
       <r>   12.0424    0.0000 </r>
       <r>   12.1334    0.0000 </r>
       <r>   12.1334    0.0000 </r>
       <r>   14.5765    0.0000 </r>
       <r>   15.6805    0.0000 </r>
       <r>   15.7081    0.0000 </r>
       <r>   15.7081    0.0000 </r>
       <r>   17.4750    0.0000 </r>
       <r>   19.0998    0.0000 </r>
       <r>   19.1517    0.0000 </r>
       <r>   19.1517    0.0000 </r>
       <r>   20.2043    0.0000 </r>
       <r>   21.9242    0.0000 </r>
       <r>   22.2393    0.0000 </r>
      </set>
      <set comment="kpoint 45">
       <r>   -6.8471    1.0000 </r>
       <r>   -2.3993    1.0000 </r>
       <r>    1.0090    1.0000 </r>
       <r>    1.0090    1.0000 </r>
       <r>    4.8636    0.0000 </r>
       <r>    5.4216    0.0000 </r>
       <r>   12.1475    0.0000 </r>
       <r>   12.2383    0.0000 </r>
       <r>   12.2383    0.0000 </r>
       <r>   14.6242    0.0000 </r>
       <r>   15.5851    0.0000 </r>
       <r>   15.5851    0.0000 </r>
       <r>   15.6145    0.0000 </r>
       <r>   17.3961    0.0000 </r>
       <r>   19.2603    0.0000 </r>
       <r>   19.3839    0.0000 </r>
       <r>   19.3839    0.0000 </r>
       <r>   20.4103    0.0000 </r>
       <r>   21.7197    0.0000 </r>
       <r>   21.9758    0.0000 </r>
      </set>
      <set comment="kpoint 46">
       <r>   -6.8210    1.0000 </r>
       <r>   -2.4411    1.0000 </r>
       <r>    0.9950    1.0000 </r>
       <r>    0.9950    1.0000 </r>
       <r>    4.8551    0.0000 </r>
       <r>    5.3997    0.0000 </r>
       <r>   12.2389    0.0000 </r>
       <r>   12.3304    0.0000 </r>
       <r>   12.3304    0.0000 </r>
       <r>   14.6654    0.0000 </r>
       <r>   15.4783    0.0000 </r>
       <r>   15.4783    0.0000 </r>
       <r>   15.5524    0.0000 </r>
       <r>   17.3294    0.0000 </r>
       <r>   19.4231    0.0000 </r>
       <r>   19.6177    0.0000 </r>
       <r>   19.6177    0.0000 </r>
       <r>   20.6003    0.0000 </r>
       <r>   21.5001    0.0000 </r>
       <r>   21.7161    0.0000 </r>
      </set>
      <set comment="kpoint 47">
       <r>   -6.8003    1.0000 </r>
       <r>   -2.4740    1.0000 </r>
       <r>    0.9841    1.0000 </r>
       <r>    0.9841    1.0000 </r>
       <r>    4.8486    0.0000 </r>
       <r>    5.3825    0.0000 </r>
       <r>   12.3140    0.0000 </r>
       <r>   12.4065    0.0000 </r>
       <r>   12.4065    0.0000 </r>
       <r>   14.6990    0.0000 </r>
       <r>   15.3905    0.0000 </r>
       <r>   15.3905    0.0000 </r>
       <r>   15.4986    0.0000 </r>
       <r>   17.2759    0.0000 </r>
       <r>   19.5841    0.0000 </r>
       <r>   19.8512    0.0000 </r>
       <r>   19.8513    0.0000 </r>
       <r>   20.7411    0.0000 </r>
       <r>   21.3628    0.0000 </r>
       <r>   21.4624    0.0000 </r>
      </set>
      <set comment="kpoint 48">
       <r>   -6.7852    1.0000 </r>
       <r>   -2.4978    1.0000 </r>
       <r>    0.9763    1.0000 </r>
       <r>    0.9763    1.0000 </r>
       <r>    4.8441    0.0000 </r>
       <r>    5.3700    0.0000 </r>
       <r>   12.3701    0.0000 </r>
       <r>   12.4638    0.0000 </r>
       <r>   12.4638    0.0000 </r>
       <r>   14.7240    0.0000 </r>
       <r>   15.3250    0.0000 </r>
       <r>   15.3250    0.0000 </r>
       <r>   15.4569    0.0000 </r>
       <r>   17.2369    0.0000 </r>
       <r>   19.7335    0.0000 </r>
       <r>   20.0792    0.0000 </r>
       <r>   20.0792    0.0000 </r>
       <r>   20.7728    0.0000 </r>
       <r>   21.2200    0.0000 </r>
       <r>   21.2244    0.0000 </r>
      </set>
      <set comment="kpoint 49">
       <r>   -6.7761    1.0000 </r>
       <r>   -2.5122    1.0000 </r>
       <r>    0.9716    1.0000 </r>
       <r>    0.9716    1.0000 </r>
       <r>    4.8414    0.0000 </r>
       <r>    5.3625    0.0000 </r>
       <r>   12.4048    0.0000 </r>
       <r>   12.4994    0.0000 </r>
       <r>   12.4994    0.0000 </r>
       <r>   14.7393    0.0000 </r>
       <r>   15.2843    0.0000 </r>
       <r>   15.2843    0.0000 </r>
       <r>   15.4305    0.0000 </r>
       <r>   17.2130    0.0000 </r>
       <r>   19.8505    0.0000 </r>
       <r>   20.2835    0.0000 </r>
       <r>   20.2836    0.0000 </r>
[...]
       </set>
       <set comment="band 16">
        <r>  0.0000  0.0036  0.0000  0.0036  0.0000  0.2797  0.0000  0.2798  0.4626 </r>
        <r>  0.0000  0.0061  0.0000  0.0061  0.0000  0.0622  0.0000  0.0622  0.0003 </r>
       </set>
       <set comment="band 17">
        <r>  0.0004  0.0136  0.0173  0.0136  0.2352  0.3550  0.2327  0.3551  0.0000 </r>
        <r>  0.0468  0.0008  0.0070  0.0008  0.0630  0.0000  0.0069  0.0000  0.0000 </r>
       </set>
       <set comment="band 18">
        <r>  0.0128  0.0119  0.0545  0.0118  0.1425  0.0716  0.4923  0.0695  0.0000 </r>
        <r>  0.0023  0.0003  0.0003  0.0004  0.0203  0.0071  0.0431  0.0069  0.0000 </r>
       </set>
       <set comment="band 19">
        <r>  0.0000  0.0010  0.0000  0.0016  0.0000  0.1167  0.0001  0.1187  0.0646 </r>
        <r>  0.0000  0.0005  0.0000  0.0005  0.0000  0.0139  0.0000  0.0145  0.0286 </r>
       </set>
       <set comment="band 20">
        <r>  0.0000  0.0199  0.0000  0.0228  0.0002  0.0959  0.0000  0.0963  0.2740 </r>
        <r>  0.0000  0.0136  0.0000  0.0134  0.0000  0.0036  0.0000  0.0040  0.0110 </r>
       </set>
      </set>
      <set comment="kpoint 247">
       <set comment="band 1">
        <r>  0.0244  0.0187  0.0705  0.0187  0.0151  0.0040  0.0000  0.0040  0.0000 </r>
        <r>  0.6035  0.0002  0.0002  0.0002  0.0001  0.0000  0.0000  0.0000  0.0000 </r>
       </set>
       <set comment="band 2">
        <r>  0.6068  0.0004  0.0189  0.0004  0.0001  0.0006  0.0016  0.0006  0.0000 </r>
        <r>  0.0099  0.0268  0.0936  0.0268  0.0027  0.0010  0.0001  0.0010  0.0000 </r>
       </set>
       <set comment="band 3">
        <r>  0.0024  0.1133  0.0891  0.1133  0.0017  0.0006  0.0114  0.0006  0.0000 </r>
        <r>  0.0005  0.0775  0.0895  0.0775  0.0001  0.0000  0.0012  0.0000  0.0000 </r>
       </set>
       <set comment="band 4">
        <r>  0.0000  0.1575  0.0000  0.1575  0.0000  0.0097  0.0000  0.0097  0.0076 </r>
        <r>  0.0000  0.1648  0.0000  0.1648  0.0000  0.0005  0.0000  0.0005  0.0008 </r>
       </set>
       <set comment="band 5">
        <r>  0.1191  0.0000  0.1625  0.0000  0.0487  0.0009  0.0399  0.0009  0.0000 </r>
        <r>  0.0442  0.0002  0.0607  0.0002  0.0165  0.0000  0.0133  0.0000  0.0000 </r>
       </set>
       <set comment="band 6">
        <r>  0.1269  0.0028  0.0370  0.0028  0.0511  0.0037  0.0099  0.0037  0.0000 </r>
        <r>  0.0022  0.0972  0.0837  0.0972  0.0116  0.0020  0.0147  0.0020  0.0000 </r>
       </set>
       <set comment="band 7">
        <r>  0.0000  0.1510  0.0000  0.1510  0.0000  0.0503  0.0000  0.0503  0.0068 </r>
        <r>  0.0000  0.0727  0.0000  0.0727  0.0000  0.0088  0.0000  0.0088  0.0393 </r>
       </set>
       <set comment="band 8">
        <r>  0.0000  0.1434  0.1277  0.1434  0.0023  0.0256  0.0519  0.0256  0.0000 </r>
        <r>  0.0813  0.0277  0.0047  0.0277  0.0070  0.0002  0.0004  0.0002  0.0000 </r>
       </set>
       <set comment="band 9">
        <r>  0.0315  0.0118  0.0198  0.0118  0.0570  0.0491  0.0390  0.0491  0.0000 </r>
        <r>  0.0015  0.0056  0.1585  0.0056  0.0183  0.0216  0.0012  0.0216  0.0000 </r>
       </set>
       <set comment="band 10">
        <r>  0.0000  0.0497  0.0000  0.0497  0.0000  0.0562  0.0000  0.0562  0.2522 </r>
        <r>  0.0000  0.0006  0.0000  0.0006  0.0000  0.0414  0.0000  0.0414  0.0356 </r>
       </set>
       <set comment="band 11">
        <r>  0.0145  0.0779  0.0258  0.0779  0.0332  0.0001  0.0009  0.0001  0.0000 </r>
        <r>  0.0002  0.0062  0.1053  0.0062  0.0000  0.0134  0.0189  0.0134  0.0000 </r>
       </set>
       <set comment="band 12">
        <r>  0.0000  0.0002  0.0990  0.0002  0.0028  0.0776  0.1417  0.0776  0.0000 </r>
        <r>  0.0036  0.0184  0.0043  0.0184  0.0134  0.0002  0.0090  0.0002  0.0000 </r>
       </set>
       <set comment="band 13">
        <r>  0.0119  0.0060  0.1460  0.0060  0.1090  0.0000  0.0437  0.0000  0.0000 </r>
        <r>  0.0142  0.0333  0.0353  0.0333  0.0003  0.0293  0.0934  0.0293  0.0000 </r>
       </set>
       <set comment="band 14">
        <r>  0.0000  0.0343  0.0000  0.0343  0.0000  0.0385  0.0000  0.0386  0.0824 </r>
        <r>  0.0000  0.0478  0.0000  0.0478  0.0000  0.0122  0.0000  0.0122  0.1373 </r>
       </set>
       <set comment="band 15">
        <r>  0.0424  0.0011  0.0014  0.0011  0.0199  0.0601  0.0008  0.0601  0.0000 </r>
        <r>  0.0225  0.0357  0.0167  0.0358  0.0252  0.0569  0.0166  0.0568  0.0000 </r>
       </set>
       <set comment="band 16">
        <r>  0.0000  0.0039  0.0000  0.0039  0.0000  0.2676  0.0000  0.2675  0.4864 </r>
        <r>  0.0000  0.0055  0.0000  0.0055  0.0000  0.0615  0.0000  0.0616  0.0003 </r>
       </set>
       <set comment="band 17">
        <r>  0.0018  0.0141  0.0188  0.0141  0.1945  0.3587  0.1835  0.3582  0.0000 </r>
        <r>  0.0373  0.0033  0.0066  0.0033  0.0766  0.0001  0.0140  0.0002  0.0000 </r>
       </set>
       <set comment="band 18">
        <r>  0.0000  0.0018  0.0000  0.0013  0.0000  0.1208  0.0000  0.1227  0.0622 </r>
        <r>  0.0000  0.0007  0.0000  0.0007  0.0000  0.0133  0.0000  0.0132  0.0243 </r>
       </set>
       <set comment="band 19">
        <r>  0.0179  0.0085  0.0496  0.0086  0.1383  0.0447  0.5651  0.0436  0.0000 </r>
        <r>  0.0054  0.0004  0.0001  0.0004  0.0125  0.0051  0.0467  0.0051  0.0000 </r>
       </set>
       <set comment="band 20">
        <r>  0.0006  0.0252  0.0007  0.0210  0.0012  0.1028  0.0002  0.0981  0.2576 </r>
        <r>  0.0003  0.0127  0.0000  0.0123  0.0011  0.0038  0.0002  0.0056  0.0102 </r>
       </set>
      </set>
      <set comment="kpoint 248">
       <set comment="band 1">
        <r>  0.0201  0.0173  0.0751  0.0173  0.0158  0.0037  0.0000  0.0037  0.0000 </r>
        <r>  0.6060  0.0001  0.0001  0.0001  0.0001  0.0000  0.0000  0.0000  0.0000 </r>
       </set>
       <set comment="band 2">
        <r>  0.6129  0.0003  0.0156  0.0003  0.0001  0.0004  0.0019  0.0004  0.0000 </r>
        <r>  0.0078  0.0240  0.0992  0.0240  0.0029  0.0009  0.0001  0.0009  0.0000 </r>
       </set>
       <set comment="band 3">
        <r>  0.0012  0.1155  0.0864  0.1155  0.0013  0.0007  0.0112  0.0007  0.0000 </r>
        <r>  0.0003  0.0818  0.0818  0.0818  0.0000  0.0000  0.0012  0.0000  0.0000 </r>
       </set>
       <set comment="band 4">
        <r>  0.0000  0.1587  0.0000  0.1587  0.0000  0.0092  0.0000  0.0092  0.0069 </r>
        <r>  0.0000  0.1637  0.0000  0.1637  0.0000  0.0005  0.0000  0.0005  0.0007 </r>
       </set>
       <set comment="band 5">
        <r>  0.1151  0.0000  0.1620  0.0000  0.0501  0.0008  0.0403  0.0008  0.0000 </r>
        <r>  0.0435  0.0001  0.0586  0.0001  0.0162  0.0000  0.0137  0.0000  0.0000 </r>
       </set>
       <set comment="band 6">
        <r>  0.1260  0.0058  0.0414  0.0058  0.0521  0.0038  0.0159  0.0038  0.0000 </r>
        <r>  0.0040  0.0900  0.0797  0.0900  0.0141  0.0014  0.0141  0.0014  0.0000 </r>
       </set>
       <set comment="band 7">
        <r>  0.0000  0.1489  0.0000  0.1489  0.0000  0.0506  0.0000  0.0506  0.0068 </r>
        <r>  0.0000  0.0747  0.0000  0.0747  0.0000  0.0086  0.0000  0.0086  0.0397 </r>
       </set>
       <set comment="band 8">
        <r>  0.0063  0.1513  0.0780  0.1513  0.0002  0.0074  0.0713  0.0074  0.0000 </r>
        <r>  0.0630  0.0250  0.0082  0.0250  0.0129  0.0042  0.0002  0.0042  0.0000 </r>
       </set>
       <set comment="band 9">
        <r>  0.0305  0.0006  0.0624  0.0006  0.0530  0.0695  0.0120  0.0695  0.0000 </r>
        <r>  0.0170  0.0147  0.1672  0.0147  0.0095  0.0180  0.0014  0.0180  0.0000 </r>
       </set>
       <set comment="band 10">
        <r>  0.0000  0.0509  0.0000  0.0509  0.0000  0.0570  0.0000  0.0570  0.2501 </r>
        <r>  0.0000  0.0005  0.0000  0.0005  0.0000  0.0427  0.0000  0.0427  0.0356 </r>
       </set>
       <set comment="band 11">
        <r>  0.0094  0.0821  0.0364  0.0821  0.0415  0.0005  0.0001  0.0005  0.0000 </r>
        <r>  0.0006  0.0075  0.1148  0.0075  0.0000  0.0192  0.0135  0.0192  0.0000 </r>
       </set>
       <set comment="band 12">
        <r>  0.0000  0.0002  0.1028  0.0002  0.0017  0.0683  0.1423  0.0683  0.0000 </r>
        <r>  0.0022  0.0204  0.0048  0.0204  0.0129  0.0005  0.0087  0.0005  0.0000 </r>
       </set>
       <set comment="band 13">
        <r>  0.0148  0.0026  0.1348  0.0026  0.1075  0.0003  0.0389  0.0003  0.0000 </r>
        <r>  0.0170  0.0292  0.0240  0.0292  0.0001  0.0260  0.0984  0.0260  0.0000 </r>
       </set>
       <set comment="band 14">
        <r>  0.0000  0.0326  0.0000  0.0326  0.0000  0.0396  0.0000  0.0396  0.0796 </r>
        <r>  0.0000  0.0475  0.0000  0.0475  0.0000  0.0117  0.0000  0.0117  0.1395 </r>
       </set>
       <set comment="band 15">
        <r>  0.0402  0.0013  0.0023  0.0013  0.0312  0.0939  0.0011  0.0939  0.0000 </r>
        <r>  0.0289  0.0323  0.0146  0.0323  0.0171  0.0547  0.0130  0.0547  0.0000 </r>
       </set>
       <set comment="band 16">
        <r>  0.0000  0.0041  0.0000  0.0041  0.0000  0.2545  0.0000  0.2545  0.5125 </r>
        <r>  0.0000  0.0049  0.0000  0.0049  0.0000  0.0607  0.0000  0.0607  0.0002 </r>
       </set>
       <set comment="band 17">
        <r>  0.0039  0.0134  0.0220  0.0134  0.1416  0.3561  0.1239  0.3561  0.0000 </r>
        <r>  0.0276  0.0069  0.0060  0.0069  0.0910  0.0003  0.0234  0.0003  0.0000 </r>
       </set>
       <set comment="band 18">
        <r>  0.0000  0.0019  0.0000  0.0019  0.0000  0.1249  0.0000  0.1249  0.0568 </r>
        <r>  0.0000  0.0009  0.0000  0.0009  0.0000  0.0124  0.0000  0.0124  0.0208 </r>
       </set>
       <set comment="band 19">
        <r>  0.0181  0.0068  0.0454  0.0067  0.1529  0.0199  0.6389  0.0199  0.0000 </r>
        <r>  0.0099  0.0008  0.0000  0.0008  0.0052  0.0042  0.0434  0.0042  0.0000 </r>
       </set>
       <set comment="band 20">
        <r>  0.0000  0.0242  0.0000  0.0242  0.0000  0.1081  0.0000  0.1081  0.2535 </r>
        <r>  0.0000  0.0116  0.0000  0.0116  0.0000  0.0059  0.0000  0.0059  0.0102 </r>
       </set>
      </set>
      <set comment="kpoint 249">
       <set comment="band 1">
        <r>  0.0162  0.0159  0.0797  0.0159  0.0166  0.0035  0.0000  0.0035  0.0000 </r>
        <r>  0.6081  0.0001  0.0001  0.0001  0.0001  0.0000  0.0000  0.0000  0.0000 </r>
       </set>
       <set comment="band 2">
        <r>  0.6178  0.0003  0.0127  0.0003  0.0001  0.0003  0.0023  0.0003  0.0000 </r>
        <r>  0.0060  0.0213  0.1046  0.0213  0.0030  0.0008  0.0001  0.0008  0.0000 </r>
       </set>
       <set comment="band 3">
        <r>  0.0004  0.1178  0.0832  0.1178  0.0009  0.0009  0.0110  0.0009  0.0000 </r>
        <r>  0.0002  0.0862  0.0743  0.0862  0.0000  0.0000  0.0012  0.0000  0.0000 </r>
       </set>
       <set comment="band 4">
        <r>  0.0000  0.1598  0.0000  0.1598  0.0000  0.0088  0.0000  0.0088  0.0063 </r>
        <r>  0.0000  0.1626  0.0000  0.1626  0.0000  0.0005  0.0000  0.0005  0.0007 </r>
       </set>
       <set comment="band 5">
        <r>  0.1110  0.0000  0.1619  0.0000  0.0516  0.0008  0.0405  0.0008  0.0000 </r>
        <r>  0.0430  0.0000  0.0565  0.0000  0.0158  0.0000  0.0141  0.0000  0.0000 </r>
       </set>
       <set comment="band 6">
        <r>  0.1250  0.0090  0.0452  0.0090  0.0520  0.0038  0.0223  0.0038  0.0000 </r>
        <r>  0.0060  0.0825  0.0759  0.0825  0.0164  0.0010  0.0134  0.0010  0.0000 </r>
       </set>
       <set comment="band 7">
        <r>  0.0147  0.1426  0.0540  0.1426  0.0007  0.0032  0.0705  0.0032  0.0000 </r>
        <r>  0.0504  0.0264  0.0280  0.0264  0.0136  0.0074  0.0002  0.0074  0.0000 </r>
       </set>
       <set comment="band 8">
        <r>  0.0000  0.1472  0.0000  0.1472  0.0000  0.0509  0.0000  0.0509  0.0068 </r>
        <r>  0.0000  0.0768  0.0000  0.0768  0.0000  0.0084  0.0000  0.0084  0.0400 </r>
       </set>
       <set comment="band 9">
        <r>  0.0275  0.0059  0.0796  0.0059  0.0477  0.0758  0.0053  0.0758  0.0000 </r>
        <r>  0.0263  0.0200  0.1599  0.0200  0.0064  0.0150  0.0013  0.0150  0.0000 </r>
       </set>
       <set comment="band 10">
        <r>  0.0000  0.0520  0.0000  0.0520  0.0000  0.0578  0.0000  0.0578  0.2472 </r>
        <r>  0.0000  0.0005  0.0000  0.0005  0.0000  0.0441  0.0000  0.0441  0.0357 </r>
       </set>
       <set comment="band 11">
        <r>  0.0054  0.0847  0.0478  0.0847  0.0499  0.0011  0.0001  0.0011  0.0000 </r>
        <r>  0.0014  0.0088  0.1216  0.0088  0.0001  0.0255  0.0089  0.0255  0.0000 </r>
       </set>
       <set comment="band 12">
        <r>  0.0000  0.0002  0.1113  0.0002  0.0003  0.0558  0.1400  0.0558  0.0000 </r>
        <r>  0.0007  0.0238  0.0053  0.0238  0.0125  0.0009  0.0073  0.0009  0.0000 </r>
       </set>
       <set comment="band 13">
        <r>  0.0000  0.0308  0.0000  0.0308  0.0000  0.0409  0.0000  0.0409  0.0770 </r>
        <r>  0.0000  0.0471  0.0000  0.0471  0.0000  0.0112  0.0000  0.0112  0.1416 </r>
       </set>
       <set comment="band 14">
        <r>  0.0160  0.0006  0.1190  0.0006  0.1075  0.0017  0.0367  0.0017  0.0000 </r>
        <r>  0.0208  0.0255  0.0146  0.0255  0.0000  0.0208  0.1050  0.0208  0.0000 </r>
       </set>
       <set comment="band 15">
        <r>  0.0387  0.0015  0.0018  0.0015  0.0382  0.1302  0.0008  0.1302  0.0000 </r>
        <r>  0.0333  0.0263  0.0129  0.0263  0.0107  0.0538  0.0086  0.0538  0.0000 </r>
       </set>
       <set comment="band 16">
        <r>  0.0000  0.0044  0.0000  0.0044  0.0000  0.2404  0.0000  0.2404  0.5406 </r>
        <r>  0.0000  0.0044  0.0000  0.0044  0.0000  0.0595  0.0000  0.0595  0.0001 </r>
       </set>
       <set comment="band 17">
        <r>  0.0070  0.0124  0.0306  0.0128  0.0853  0.3498  0.0502  0.3479  0.0000 </r>
        <r>  0.0162  0.0101  0.0052  0.0101  0.0991  0.0002  0.0373  0.0002  0.0000 </r>
       </set>
       <set comment="band 18">
        <r>  0.0000  0.0021  0.0000  0.0022  0.0000  0.1286  0.0000  0.1323  0.0532 </r>
        <r>  0.0000  0.0012  0.0000  0.0012  0.0000  0.0111  0.0000  0.0115  0.0176 </r>
       </set>
       <set comment="band 19">
        <r>  0.0177  0.0071  0.0348  0.0073  0.1775  0.0015  0.7221  0.0012  0.0000 </r>
        <r>  0.0156  0.0020  0.0004  0.0020  0.0003  0.0034  0.0350  0.0034  0.0000 </r>
       </set>
       <set comment="band 20">
        <r>  0.0001  0.0255  0.0001  0.0253  0.0000  0.1159  0.0000  0.1120  0.2383 </r>
        <r>  0.0000  0.0110  0.0000  0.0107  0.0000  0.0069  0.0001  0.0075  0.0099 </r>
       </set>
      </set>
      <set comment="kpoint 250">
       <set comment="band 1">
        <r>  0.0129  0.0144  0.0841  0.0144  0.0173  0.0032  0.0000  0.0032  0.0000 </r>
        <r>  0.6099  0.0001  0.0001  0.0001  0.0000  0.0000  0.0000  0.0000  0.0000 </r>
       </set>
       <set comment="band 2">
        <r>  0.6216  0.0003  0.0101  0.0003  0.0000  0.0002  0.0027  0.0002  0.0000 </r>
        <r>  0.0046  0.0187  0.1099  0.0187  0.0032  0.0008  0.0000  0.0008  0.0000 </r>
       </set>
       <set comment="band 3">
        <r>  0.0000  0.1203  0.0796  0.1203  0.0006  0.0011  0.0107  0.0011  0.0000 </r>
        <r>  0.0001  0.0907  0.0670  0.0907  0.0000  0.0000  0.0012  0.0000  0.0000 </r>
       </set>
       <set comment="band 4">
        <r>  0.0000  0.1609  0.0000  0.1609  0.0000  0.0085  0.0000  0.0085  0.0057 </r>
        <r>  0.0000  0.1616  0.0000  0.1616  0.0000  0.0004  0.0000  0.0004  0.0006 </r>
       </set>
       <set comment="band 5">
        <r>  0.1070  0.0000  0.1622  0.0000  0.0531  0.0008  0.0404  0.0008  0.0000 </r>
        <r>  0.0427  0.0000  0.0544  0.0000  0.0154  0.0000  0.0146  0.0000  0.0000 </r>
       </set>
       <set comment="band 6">
        <r>  0.1246  0.0120  0.0482  0.0120  0.0510  0.0037  0.0284  0.0037  0.0000 </r>
        <r>  0.0079  0.0752  0.0727  0.0752  0.0182  0.0007  0.0127  0.0007  0.0000 </r>
       </set>
       <set comment="band 7">
        <r>  0.0216  0.1348  0.0417  0.1348  0.0006  0.0021  0.0656  0.0021  0.0000 </r>
        <r>  0.0426  0.0294  0.0452  0.0294  0.0128  0.0093  0.0003  0.0093  0.0000 </r>
       </set>
       <set comment="band 8">
        <r>  0.0000  0.1459  0.0000  0.1459  0.0000  0.0511  0.0000  0.0511  0.0068 </r>
        <r>  0.0000  0.0789  0.0000  0.0789  0.0000  0.0082  0.0000  0.0082  0.0401 </r>
       </set>
       <set comment="band 9">
        <r>  0.0256  0.0107  0.0853  0.0107  0.0438  0.0789  0.0032  0.0789  0.0000 </r>
        <r>  0.0306  0.0236  0.1551  0.0236  0.0051  0.0130  0.0013  0.0130  0.0000 </r>
       </set>
       <set comment="band 10">
        <r>  0.0000  0.0530  0.0000  0.0530  0.0000  0.0589  0.0000  0.0589  0.2434 </r>
        <r>  0.0000  0.0004  0.0000  0.0004  0.0000  0.0455  0.0000  0.0455  0.0361 </r>
       </set>
       <set comment="band 11">
        <r>  0.0026  0.0860  0.0588  0.0860  0.0576  0.0022  0.0006  0.0022  0.0000 </r>
        <r>  0.0025  0.0097  0.1249  0.0097  0.0002  0.0318  0.0055  0.0318  0.0000 </r>
       </set>
       <set comment="band 12">
        <r>  0.0000  0.0002  0.1276  0.0002  0.0004  0.0386  0.1320  0.0386  0.0000 </r>
        <r>  0.0000  0.0296  0.0058  0.0295  0.0120  0.0015  0.0043  0.0015  0.0000 </r>
       </set>
       <set comment="band 13">
        <r>  0.0000  0.0288  0.0000  0.0288  0.0000  0.0422  0.0000  0.0422  0.0745 </r>
        <r>  0.0000  0.0465  0.0000  0.0465  0.0000  0.0108  0.0000  0.0108  0.1434 </r>
       </set>
       <set comment="band 14">
        <r>  0.0150  0.0000  0.0965  0.0000  0.1100  0.0070  0.0395  0.0070  0.0000 </r>
        <r>  0.0259  0.0213  0.0080  0.0213  0.0001  0.0148  0.1131  0.0148  0.0000 </r>
       </set>
       <set comment="band 15">
        <r>  0.0381  0.0018  0.0003  0.0018  0.0389  0.1654  0.0002  0.1655  0.0000 </r>
        <r>  0.0344  0.0186  0.0110  0.0186  0.0059  0.0535  0.0043  0.0535  0.0000 </r>
       </set>
       <set comment="band 16">
        <r>  0.0000  0.0047  0.0000  0.0047  0.0000  0.2255  0.0000  0.2256  0.5708 </r>
        <r>  0.0000  0.0039  0.0000  0.0039  0.0000  0.0581  0.0000  0.0581  0.0001 </r>
       </set>
       <set comment="band 17">
        <r>  0.0124  0.0101  0.0460  0.0101  0.0273  0.3132  0.0001  0.3128  0.0000 </r>
        <r>  0.0052  0.0107  0.0036  0.0107  0.0953  0.0001  0.0573  0.0001  0.0000 </r>
       </set>
       <set comment="band 18">
        <r>  0.0000  0.0026  0.0000  0.0025  0.0000  0.1351  0.0000  0.1353  0.0481 </r>
        <r>  0.0000  0.0016  0.0000  0.0016  0.0000  0.0106  0.0000  0.0104  0.0148 </r>
       </set>
       <set comment="band 19">
        <r>  0.0149  0.0101  0.0173  0.0101  0.2106  0.0127  0.7713  0.0131  0.0000 </r>
        <r>  0.0213  0.0055  0.0014  0.0057  0.0037  0.0026  0.0200  0.0026  0.0000 </r>
       </set>
       <set comment="band 20">
        <r>  0.0000  0.0273  0.0000  0.0266  0.0000  0.1201  0.0000  0.1202  0.2204 </r>
        <r>  0.0000  0.0100  0.0000  0.0100  0.0000  0.0084  0.0000  0.0091  0.0091 </r>
       </set>
      </set>
     </set>
    </set>
   </array>
  </projected>
 </calculation>
 <structure name="finalpos" >
  <crystal>
   <varray name="basis" >
    <v>       0.00000000       3.02920000       3.02920000 </v>
    <v>       3.02920000       0.00000000       3.02920000 </v>
    <v>       3.02920000       3.02920000       0.00000000 </v>
   </varray>
   <i name="volume">     55.59219731 </i>
   <varray name="rec_basis" >
    <v>      -0.16506008       0.16506008       0.16506008 </v>
    <v>       0.16506008      -0.16506008       0.16506008 </v>
    <v>       0.16506008       0.16506008      -0.16506008 </v>
   </varray>
  </crystal>
  <varray name="positions" >
   <v>       0.00000000       0.00000000       0.00000000 </v>
   <v>       0.25000000       0.25000000       0.25000000 </v>
  </varray>
 </structure>
</modeling>
