 Fermi distribution function

Calculation with static geometry


********************************************************************************
 iSCC Total electronic   Diff electronic      SCC error    
    4   -0.24848172E+02   -0.15564672E-03    0.80902540E-05
********************************************************************************

 Total charge:    -0.00000000

 Atomic gross charges (e)
 Atom           Charge
    1       0.72833178
    2      -0.72833178

Nr. of electrons (up):     28.00000000
Atom populations (up)
 Atom       Population
    1      12.27166822
    2      15.72833178

l-shell populations (up)
 Atom Sh.   l       Population
    1   1   0       1.32218752
    1   2   1       0.95787564
    1   3   2       9.99160506
    2   1   0       1.96283515
    2   2   1       3.76579177
    2   3   2       9.99970486

Orbital populations (up)
 Atom Sh.   l   m       Population  Label
    1   1   0   0       1.32218752  s
    1   2   1  -1       0.16181467  p_y
    1   2   1   0       0.38453791  p_z
    1   2   1   1       0.41152307  p_x
    1   3   2  -2       1.99758344  d_xy
    1   3   2  -1       1.99740042  d_yz
    1   3   2   0       1.99979314  d_z2
    1   3   2   1       1.99704216  d_xz
    1   3   2   2       1.99978590  d_x2-y2
    2   1   0   0       1.96283515  s
    2   2   1  -1       1.08722167  p_y
    2   2   1   0       1.30380857  p_z
    2   2   1   1       1.37476154  p_x
    2   3   2  -2       1.99988987  d_xy
    2   3   2  -1       1.99990633  d_yz
    2   3   2   0       2.00001743  d_z2
    2   3   2   1       1.99987002  d_xz
    2   3   2   2       2.00002120  d_x2-y2

Fermi level:                        -0.0492798932 H           -1.3410 eV
Band energy:                       -23.5595193167 H         -641.0871 eV
TS:                                  0.0000000000 H            0.0000 eV
Band free energy (E-TS):           -23.5595193167 H         -641.0871 eV
Extrapolated E(0K):                -23.5595193167 H         -641.0871 eV
Input / Output electrons (q):     28.0000000000     28.0000000000

Energy H0:                         -24.8622094182 H         -676.5351 eV
Energy SCC:                          0.0140371060 H            0.3820 eV
Total Electronic energy:           -24.8481723122 H         -676.1532 eV
Repulsive energy:                    0.0000000000 H            0.0000 eV
Total energy:                      -24.8481723122 H         -676.1532 eV
Extrapolated to 0:                 -24.8481723122 H         -676.1532 eV
Total Mermin free energy:          -24.8481723122 H         -676.1532 eV
Force related energy:              -24.8481723122 H         -676.1532 eV

SCC converged


