|===============================================================================
|
|  DFTB+ release 21.2
|
|  Copyright (C) 2006 - 2021  DFTB+ developers group
|
|===============================================================================
|
|  When publishing results obtained with DFTB+, please cite the following
|  reference:
|
|  * DFTB+, a software package for efficient approximate density functional
|    theory based atomistic simulations, J. Chem. Phys. 152, 124101 (2020).
|    [doi: 10.1063/1.5143190]
|
|  You should also cite additional publications crediting the parametrization
|  data you use. Please consult the documentation of the SK-files for the
|  references.
|
|===============================================================================

Reading input file 'dftb_in.hsd'
Parser version: 10

--------------------------------------------------------------------------------
Reading SK-files:
/home/derek/doc/cmu/research/projects/dftb_tests/dftbopt/dftbopt/slako/In-In.skf
/home/derek/doc/cmu/research/projects/dftb_tests/dftbopt/dftbopt/slako/In-As.skf
/home/derek/doc/cmu/research/projects/dftb_tests/dftbopt/dftbopt/slako/As-As.skf
Done.
WARNING!
-> The following 1 node(s) have been ignored by the parser:
(1)
Path: dftbplusinput/Hamiltonian/DFTB/SccTolerence
Line: 265-265 (File: dftb_in.hsd)



Processed input in HSD format written to 'dftb_pin.hsd'

Starting initialization...
--------------------------------------------------------------------------------
OpenMP threads:              12
Chosen random seed:          361921448
Mode:                        Static calculation
Self consistent charges:     Yes
SCC-tolerance:                 0.100000E-04
Max. scc iterations:                    100
Shell resolved Hubbard:      No
Spin polarisation:           No
Nr. of up electrons:            14.000000
Nr. of down electrons:          14.000000
Periodic boundaries:         Yes
Electronic solver:           Relatively robust
Mixer:                       Broyden mixer
Mixing parameter:                  0.200000
Maximal SCC-cycles:                     100
Nr. of chrg. vec. in memory:            100
Electronic temperature:        0.100000E-07 H      0.272114E-06 eV
Initial charges:             Read in from 'charges'
Included shells:            In:  s, p, d
                            As:  s, p, d
K-points and weights:           1:  0.000000  0.000000  0.000000     0.004000
                                2:  0.010204  0.000000  0.010204     0.004000
                                3:  0.020408  0.000000  0.020408     0.004000
                                4:  0.030612  0.000000  0.030612     0.004000
                                5:  0.040816  0.000000  0.040816     0.004000
                                6:  0.051020  0.000000  0.051020     0.004000
                                7:  0.061224  0.000000  0.061224     0.004000
                                8:  0.071429  0.000000  0.071429     0.004000
                                9:  0.081633  0.000000  0.081633     0.004000
                               10:  0.091837  0.000000  0.091837     0.004000
                               11:  0.102041  0.000000  0.102041     0.004000
                               12:  0.112245  0.000000  0.112245     0.004000
                               13:  0.122449  0.000000  0.122449     0.004000
                               14:  0.132653  0.000000  0.132653     0.004000
                               15:  0.142857  0.000000  0.142857     0.004000
                               16:  0.153061  0.000000  0.153061     0.004000
                               17:  0.163265  0.000000  0.163265     0.004000
                               18:  0.173469  0.000000  0.173469     0.004000
                               19:  0.183673  0.000000  0.183673     0.004000
                               20:  0.193878  0.000000  0.193878     0.004000
                               21:  0.204082  0.000000  0.204082     0.004000
                               22:  0.214286  0.000000  0.214286     0.004000
                               23:  0.224490  0.000000  0.224490     0.004000
                               24:  0.234694  0.000000  0.234694     0.004000
                               25:  0.244898  0.000000  0.244898     0.004000
                               26:  0.255102  0.000000  0.255102     0.004000
                               27:  0.265306  0.000000  0.265306     0.004000
                               28:  0.275510  0.000000  0.275510     0.004000
                               29:  0.285714  0.000000  0.285714     0.004000
                               30:  0.295918  0.000000  0.295918     0.004000
                               31:  0.306122  0.000000  0.306122     0.004000
                               32:  0.316327  0.000000  0.316327     0.004000
                               33:  0.326531  0.000000  0.326531     0.004000
                               34:  0.336735  0.000000  0.336735     0.004000
                               35:  0.346939  0.000000  0.346939     0.004000
                               36:  0.357143  0.000000  0.357143     0.004000
                               37:  0.367347  0.000000  0.367347     0.004000
                               38:  0.377551  0.000000  0.377551     0.004000
                               39:  0.387755  0.000000  0.387755     0.004000
                               40:  0.397959  0.000000  0.397959     0.004000
                               41:  0.408163  0.000000  0.408163     0.004000
                               42:  0.418367  0.000000  0.418367     0.004000
                               43:  0.428571  0.000000  0.428571     0.004000
                               44:  0.438776  0.000000  0.438776     0.004000
                               45:  0.448980  0.000000  0.448980     0.004000
                               46:  0.459184  0.000000  0.459184     0.004000
                               47:  0.469388  0.000000  0.469388     0.004000
                               48:  0.479592  0.000000  0.479592     0.004000
                               49:  0.489796  0.000000  0.489796     0.004000
                               50:  0.500000  0.000000  0.500000     0.004000
                               51:  0.500000  0.000000  0.500000     0.004000
                               52:  0.500000  0.005102  0.505102     0.004000
                               53:  0.500000  0.010204  0.510204     0.004000
                               54:  0.500000  0.015306  0.515306     0.004000
                               55:  0.500000  0.020408  0.520408     0.004000
                               56:  0.500000  0.025510  0.525510     0.004000
                               57:  0.500000  0.030612  0.530612     0.004000
                               58:  0.500000  0.035714  0.535714     0.004000
                               59:  0.500000  0.040816  0.540816     0.004000
                               60:  0.500000  0.045918  0.545918     0.004000
                               61:  0.500000  0.051020  0.551020     0.004000
                               62:  0.500000  0.056122  0.556122     0.004000
                               63:  0.500000  0.061224  0.561224     0.004000
                               64:  0.500000  0.066327  0.566327     0.004000
                               65:  0.500000  0.071429  0.571429     0.004000
                               66:  0.500000  0.076531  0.576531     0.004000
                               67:  0.500000  0.081633  0.581633     0.004000
                               68:  0.500000  0.086735  0.586735     0.004000
                               69:  0.500000  0.091837  0.591837     0.004000
                               70:  0.500000  0.096939  0.596939     0.004000
                               71:  0.500000  0.102041  0.602041     0.004000
                               72:  0.500000  0.107143  0.607143     0.004000
                               73:  0.500000  0.112245  0.612245     0.004000
                               74:  0.500000  0.117347  0.617347     0.004000
                               75:  0.500000  0.122449  0.622449     0.004000
                               76:  0.500000  0.127551  0.627551     0.004000
                               77:  0.500000  0.132653  0.632653     0.004000
                               78:  0.500000  0.137755  0.637755     0.004000
                               79:  0.500000  0.142857  0.642857     0.004000
                               80:  0.500000  0.147959  0.647959     0.004000
                               81:  0.500000  0.153061  0.653061     0.004000
                               82:  0.500000  0.158163  0.658163     0.004000
                               83:  0.500000  0.163265  0.663265     0.004000
                               84:  0.500000  0.168367  0.668367     0.004000
                               85:  0.500000  0.173469  0.673469     0.004000
                               86:  0.500000  0.178571  0.678571     0.004000
                               87:  0.500000  0.183673  0.683673     0.004000
                               88:  0.500000  0.188776  0.688776     0.004000
                               89:  0.500000  0.193878  0.693878     0.004000
                               90:  0.500000  0.198980  0.698980     0.004000
                               91:  0.500000  0.204082  0.704082     0.004000
                               92:  0.500000  0.209184  0.709184     0.004000
                               93:  0.500000  0.214286  0.714286     0.004000
                               94:  0.500000  0.219388  0.719388     0.004000
                               95:  0.500000  0.224490  0.724490     0.004000
                               96:  0.500000  0.229592  0.729592     0.004000
                               97:  0.500000  0.234694  0.734694     0.004000
                               98:  0.500000  0.239796  0.739796     0.004000
                               99:  0.500000  0.244898  0.744898     0.004000
                              100:  0.500000  0.250000  0.750000     0.004000
                              101:  0.500000  0.250000  0.750000     0.004000
                              102:  0.500000  0.255102  0.744898     0.004000
                              103:  0.500000  0.260204  0.739796     0.004000
                              104:  0.500000  0.265306  0.734694     0.004000
                              105:  0.500000  0.270408  0.729592     0.004000
                              106:  0.500000  0.275510  0.724490     0.004000
                              107:  0.500000  0.280612  0.719388     0.004000
                              108:  0.500000  0.285714  0.714286     0.004000
                              109:  0.500000  0.290816  0.709184     0.004000
                              110:  0.500000  0.295918  0.704082     0.004000
                              111:  0.500000  0.301020  0.698980     0.004000
                              112:  0.500000  0.306122  0.693878     0.004000
                              113:  0.500000  0.311224  0.688776     0.004000
                              114:  0.500000  0.316327  0.683673     0.004000
                              115:  0.500000  0.321429  0.678571     0.004000
                              116:  0.500000  0.326531  0.673469     0.004000
                              117:  0.500000  0.331633  0.668367     0.004000
                              118:  0.500000  0.336735  0.663265     0.004000
                              119:  0.500000  0.341837  0.658163     0.004000
                              120:  0.500000  0.346939  0.653061     0.004000
                              121:  0.500000  0.352041  0.647959     0.004000
                              122:  0.500000  0.357143  0.642857     0.004000
                              123:  0.500000  0.362245  0.637755     0.004000
                              124:  0.500000  0.367347  0.632653     0.004000
                              125:  0.500000  0.372449  0.627551     0.004000
                              126:  0.500000  0.377551  0.622449     0.004000
                              127:  0.500000  0.382653  0.617347     0.004000
                              128:  0.500000  0.387755  0.612245     0.004000
                              129:  0.500000  0.392857  0.607143     0.004000
                              130:  0.500000  0.397959  0.602041     0.004000
                              131:  0.500000  0.403061  0.596939     0.004000
                              132:  0.500000  0.408163  0.591837     0.004000
                              133:  0.500000  0.413265  0.586735     0.004000
                              134:  0.500000  0.418367  0.581633     0.004000
                              135:  0.500000  0.423469  0.576531     0.004000
                              136:  0.500000  0.428571  0.571429     0.004000
                              137:  0.500000  0.433673  0.566327     0.004000
                              138:  0.500000  0.438776  0.561224     0.004000
                              139:  0.500000  0.443878  0.556122     0.004000
                              140:  0.500000  0.448980  0.551020     0.004000
                              141:  0.500000  0.454082  0.545918     0.004000
                              142:  0.500000  0.459184  0.540816     0.004000
                              143:  0.500000  0.464286  0.535714     0.004000
                              144:  0.500000  0.469388  0.530612     0.004000
                              145:  0.500000  0.474490  0.525510     0.004000
                              146:  0.500000  0.479592  0.520408     0.004000
                              147:  0.500000  0.484694  0.515306     0.004000
                              148:  0.500000  0.489796  0.510204     0.004000
                              149:  0.500000  0.494898  0.505102     0.004000
                              150:  0.500000  0.500000  0.500000     0.004000
                              151:  0.500000  0.500000  0.500000     0.004000
                              152:  0.489796  0.489796  0.489796     0.004000
                              153:  0.479592  0.479592  0.479592     0.004000
                              154:  0.469388  0.469388  0.469388     0.004000
                              155:  0.459184  0.459184  0.459184     0.004000
                              156:  0.448980  0.448980  0.448980     0.004000
                              157:  0.438776  0.438776  0.438776     0.004000
                              158:  0.428571  0.428571  0.428571     0.004000
                              159:  0.418367  0.418367  0.418367     0.004000
                              160:  0.408163  0.408163  0.408163     0.004000
                              161:  0.397959  0.397959  0.397959     0.004000
                              162:  0.387755  0.387755  0.387755     0.004000
                              163:  0.377551  0.377551  0.377551     0.004000
                              164:  0.367347  0.367347  0.367347     0.004000
                              165:  0.357143  0.357143  0.357143     0.004000
                              166:  0.346939  0.346939  0.346939     0.004000
                              167:  0.336735  0.336735  0.336735     0.004000
                              168:  0.326531  0.326531  0.326531     0.004000
                              169:  0.316327  0.316327  0.316327     0.004000
                              170:  0.306122  0.306122  0.306122     0.004000
                              171:  0.295918  0.295918  0.295918     0.004000
                              172:  0.285714  0.285714  0.285714     0.004000
                              173:  0.275510  0.275510  0.275510     0.004000
                              174:  0.265306  0.265306  0.265306     0.004000
                              175:  0.255102  0.255102  0.255102     0.004000
                              176:  0.244898  0.244898  0.244898     0.004000
                              177:  0.234694  0.234694  0.234694     0.004000
                              178:  0.224490  0.224490  0.224490     0.004000
                              179:  0.214286  0.214286  0.214286     0.004000
                              180:  0.204082  0.204082  0.204082     0.004000
                              181:  0.193878  0.193878  0.193878     0.004000
                              182:  0.183673  0.183673  0.183673     0.004000
                              183:  0.173469  0.173469  0.173469     0.004000
                              184:  0.163265  0.163265  0.163265     0.004000
                              185:  0.153061  0.153061  0.153061     0.004000
                              186:  0.142857  0.142857  0.142857     0.004000
                              187:  0.132653  0.132653  0.132653     0.004000
                              188:  0.122449  0.122449  0.122449     0.004000
                              189:  0.112245  0.112245  0.112245     0.004000
                              190:  0.102041  0.102041  0.102041     0.004000
                              191:  0.091837  0.091837  0.091837     0.004000
                              192:  0.081633  0.081633  0.081633     0.004000
                              193:  0.071429  0.071429  0.071429     0.004000
                              194:  0.061224  0.061224  0.061224     0.004000
                              195:  0.051020  0.051020  0.051020     0.004000
                              196:  0.040816  0.040816  0.040816     0.004000
                              197:  0.030612  0.030612  0.030612     0.004000
                              198:  0.020408  0.020408  0.020408     0.004000
                              199:  0.010204  0.010204  0.010204     0.004000
                              200:  0.000000  0.000000  0.000000     0.004000
                              201:  0.000000  0.000000  0.000000     0.004000
                              202:  0.007653  0.007653  0.015306     0.004000
                              203:  0.015306  0.015306  0.030612     0.004000
                              204:  0.022959  0.022959  0.045918     0.004000
                              205:  0.030612  0.030612  0.061224     0.004000
                              206:  0.038265  0.038265  0.076531     0.004000
                              207:  0.045918  0.045918  0.091837     0.004000
                              208:  0.053571  0.053571  0.107143     0.004000
                              209:  0.061224  0.061224  0.122449     0.004000
                              210:  0.068878  0.068878  0.137755     0.004000
                              211:  0.076531  0.076531  0.153061     0.004000
                              212:  0.084184  0.084184  0.168367     0.004000
                              213:  0.091837  0.091837  0.183673     0.004000
                              214:  0.099490  0.099490  0.198980     0.004000
                              215:  0.107143  0.107143  0.214286     0.004000
                              216:  0.114796  0.114796  0.229592     0.004000
                              217:  0.122449  0.122449  0.244898     0.004000
                              218:  0.130102  0.130102  0.260204     0.004000
                              219:  0.137755  0.137755  0.275510     0.004000
                              220:  0.145408  0.145408  0.290816     0.004000
                              221:  0.153061  0.153061  0.306122     0.004000
                              222:  0.160714  0.160714  0.321429     0.004000
                              223:  0.168367  0.168367  0.336735     0.004000
                              224:  0.176020  0.176020  0.352041     0.004000
                              225:  0.183673  0.183673  0.367347     0.004000
                              226:  0.191327  0.191327  0.382653     0.004000
                              227:  0.198980  0.198980  0.397959     0.004000
                              228:  0.206633  0.206633  0.413265     0.004000
                              229:  0.214286  0.214286  0.428571     0.004000
                              230:  0.221939  0.221939  0.443878     0.004000
                              231:  0.229592  0.229592  0.459184     0.004000
                              232:  0.237245  0.237245  0.474490     0.004000
                              233:  0.244898  0.244898  0.489796     0.004000
                              234:  0.252551  0.252551  0.505102     0.004000
                              235:  0.260204  0.260204  0.520408     0.004000
                              236:  0.267857  0.267857  0.535714     0.004000
                              237:  0.275510  0.275510  0.551020     0.004000
                              238:  0.283163  0.283163  0.566327     0.004000
                              239:  0.290816  0.290816  0.581633     0.004000
                              240:  0.298469  0.298469  0.596939     0.004000
                              241:  0.306122  0.306122  0.612245     0.004000
                              242:  0.313776  0.313776  0.627551     0.004000
                              243:  0.321429  0.321429  0.642857     0.004000
                              244:  0.329082  0.329082  0.658163     0.004000
                              245:  0.336735  0.336735  0.673469     0.004000
                              246:  0.344388  0.344388  0.688776     0.004000
                              247:  0.352041  0.352041  0.704082     0.004000
                              248:  0.359694  0.359694  0.719388     0.004000
                              249:  0.367347  0.367347  0.734694     0.004000
                              250:  0.375000  0.375000  0.750000     0.004000

K-points in absolute space:     1:  0.000000  0.000000  0.000000
                                2:  0.000000  0.001783  0.000000
                                3:  0.000000  0.003565  0.000000
                                4:  0.000000  0.005348  0.000000
                                5:  0.000000  0.007130  0.000000
                                6:  0.000000  0.008913  0.000000
                                7:  0.000000  0.010695  0.000000
                                8:  0.000000  0.012478  0.000000
                                9:  0.000000  0.014261  0.000000
                               10:  0.000000  0.016043  0.000000
                               11:  0.000000  0.017826  0.000000
                               12:  0.000000  0.019608  0.000000
                               13:  0.000000  0.021391  0.000000
                               14:  0.000000  0.023173  0.000000
                               15:  0.000000  0.024956  0.000000
                               16:  0.000000  0.026739  0.000000
                               17:  0.000000  0.028521  0.000000
                               18:  0.000000  0.030304  0.000000
                               19:  0.000000  0.032086  0.000000
                               20:  0.000000  0.033869  0.000000
                               21:  0.000000  0.035651  0.000000
                               22:  0.000000  0.037434  0.000000
                               23:  0.000000  0.039217  0.000000
                               24:  0.000000  0.040999  0.000000
                               25:  0.000000  0.042782  0.000000
                               26:  0.000000  0.044564  0.000000
                               27:  0.000000  0.046347  0.000000
                               28:  0.000000  0.048129  0.000000
                               29:  0.000000  0.049912  0.000000
                               30:  0.000000  0.051695  0.000000
                               31:  0.000000  0.053477  0.000000
                               32:  0.000000  0.055260  0.000000
                               33:  0.000000  0.057042  0.000000
                               34:  0.000000  0.058825  0.000000
                               35:  0.000000  0.060607  0.000000
                               36:  0.000000  0.062390  0.000000
                               37:  0.000000  0.064173  0.000000
                               38:  0.000000  0.065955  0.000000
                               39:  0.000000  0.067738  0.000000
                               40:  0.000000  0.069520  0.000000
                               41:  0.000000  0.071303  0.000000
                               42:  0.000000  0.073085  0.000000
                               43:  0.000000  0.074868  0.000000
                               44:  0.000000  0.076651  0.000000
                               45:  0.000000  0.078433  0.000000
                               46:  0.000000  0.080216  0.000000
                               47:  0.000000  0.081998  0.000000
                               48:  0.000000  0.083781  0.000000
                               49:  0.000000  0.085563  0.000000
                               50:  0.000000  0.087346  0.000000
                               51:  0.000000  0.087346  0.000000
                               52:  0.000891  0.087346  0.000000
                               53:  0.001783  0.087346  0.000000
                               54:  0.002674  0.087346  0.000000
                               55:  0.003565  0.087346  0.000000
                               56:  0.004456  0.087346  0.000000
                               57:  0.005348  0.087346 -0.000000
                               58:  0.006239  0.087346  0.000000
                               59:  0.007130  0.087346 -0.000000
                               60:  0.008022  0.087346  0.000000
                               61:  0.008913  0.087346  0.000000
                               62:  0.009804  0.087346  0.000000
                               63:  0.010695  0.087346  0.000000
                               64:  0.011587  0.087346 -0.000000
                               65:  0.012478  0.087346  0.000000
                               66:  0.013369  0.087346 -0.000000
                               67:  0.014261  0.087346  0.000000
                               68:  0.015152  0.087346  0.000000
                               69:  0.016043  0.087346  0.000000
                               70:  0.016934  0.087346  0.000000
                               71:  0.017826  0.087346  0.000000
                               72:  0.018717  0.087346  0.000000
                               73:  0.019608  0.087346  0.000000
                               74:  0.020500  0.087346  0.000000
                               75:  0.021391  0.087346  0.000000
                               76:  0.022282  0.087346  0.000000
                               77:  0.023173  0.087346  0.000000
                               78:  0.024065  0.087346  0.000000
                               79:  0.024956  0.087346  0.000000
                               80:  0.025847  0.087346  0.000000
                               81:  0.026739  0.087346  0.000000
                               82:  0.027630  0.087346  0.000000
                               83:  0.028521  0.087346  0.000000
                               84:  0.029412  0.087346  0.000000
                               85:  0.030304  0.087346  0.000000
                               86:  0.031195  0.087346  0.000000
                               87:  0.032086  0.087346  0.000000
                               88:  0.032978  0.087346  0.000000
                               89:  0.033869  0.087346  0.000000
                               90:  0.034760  0.087346  0.000000
                               91:  0.035651  0.087346  0.000000
                               92:  0.036543  0.087346  0.000000
                               93:  0.037434  0.087346  0.000000
                               94:  0.038325  0.087346  0.000000
                               95:  0.039217  0.087346  0.000000
                               96:  0.040108  0.087346  0.000000
                               97:  0.040999  0.087346  0.000000
                               98:  0.041890  0.087346  0.000000
                               99:  0.042782  0.087346 -0.000000
                              100:  0.043673  0.087346  0.000000
                              101:  0.043673  0.087346  0.000000
                              102:  0.043673  0.086455  0.000891
                              103:  0.043673  0.085563  0.001783
                              104:  0.043673  0.084672  0.002674
                              105:  0.043673  0.083781  0.003565
                              106:  0.043673  0.082890  0.004456
                              107:  0.043673  0.081998  0.005348
                              108:  0.043673  0.081107  0.006239
                              109:  0.043673  0.080216  0.007130
                              110:  0.043673  0.079324  0.008022
                              111:  0.043673  0.078433  0.008913
                              112:  0.043673  0.077542  0.009804
                              113:  0.043673  0.076651  0.010695
                              114:  0.043673  0.075759  0.011587
                              115:  0.043673  0.074868  0.012478
                              116:  0.043673  0.073977  0.013369
                              117:  0.043673  0.073085  0.014261
                              118:  0.043673  0.072194  0.015152
                              119:  0.043673  0.071303  0.016043
                              120:  0.043673  0.070412  0.016934
                              121:  0.043673  0.069520  0.017826
                              122:  0.043673  0.068629  0.018717
                              123:  0.043673  0.067738  0.019608
                              124:  0.043673  0.066846  0.020500
                              125:  0.043673  0.065955  0.021391
                              126:  0.043673  0.065064  0.022282
                              127:  0.043673  0.064173  0.023173
                              128:  0.043673  0.063281  0.024065
                              129:  0.043673  0.062390  0.024956
                              130:  0.043673  0.061499  0.025847
                              131:  0.043673  0.060607  0.026739
                              132:  0.043673  0.059716  0.027630
                              133:  0.043673  0.058825  0.028521
                              134:  0.043673  0.057934  0.029412
                              135:  0.043673  0.057042  0.030304
                              136:  0.043673  0.056151  0.031195
                              137:  0.043673  0.055260  0.032086
                              138:  0.043673  0.054368  0.032978
                              139:  0.043673  0.053477  0.033869
                              140:  0.043673  0.052586  0.034760
                              141:  0.043673  0.051695  0.035651
                              142:  0.043673  0.050803  0.036543
                              143:  0.043673  0.049912  0.037434
                              144:  0.043673  0.049021  0.038325
                              145:  0.043673  0.048129  0.039217
                              146:  0.043673  0.047238  0.040108
                              147:  0.043673  0.046347  0.040999
                              148:  0.043673  0.045456  0.041890
                              149:  0.043673  0.044564  0.042782
                              150:  0.043673  0.043673  0.043673
                              151:  0.043673  0.043673  0.043673
                              152:  0.042782  0.042782  0.042782
                              153:  0.041890  0.041890  0.041890
                              154:  0.040999  0.040999  0.040999
                              155:  0.040108  0.040108  0.040108
                              156:  0.039217  0.039217  0.039217
                              157:  0.038325  0.038325  0.038325
                              158:  0.037434  0.037434  0.037434
                              159:  0.036543  0.036543  0.036543
                              160:  0.035651  0.035651  0.035651
                              161:  0.034760  0.034760  0.034760
                              162:  0.033869  0.033869  0.033869
                              163:  0.032978  0.032978  0.032978
                              164:  0.032086  0.032086  0.032086
                              165:  0.031195  0.031195  0.031195
                              166:  0.030304  0.030304  0.030304
                              167:  0.029412  0.029412  0.029412
                              168:  0.028521  0.028521  0.028521
                              169:  0.027630  0.027630  0.027630
                              170:  0.026739  0.026739  0.026739
                              171:  0.025847  0.025847  0.025847
                              172:  0.024956  0.024956  0.024956
                              173:  0.024065  0.024065  0.024065
                              174:  0.023173  0.023173  0.023173
                              175:  0.022282  0.022282  0.022282
                              176:  0.021391  0.021391  0.021391
                              177:  0.020500  0.020500  0.020500
                              178:  0.019608  0.019608  0.019608
                              179:  0.018717  0.018717  0.018717
                              180:  0.017826  0.017826  0.017826
                              181:  0.016934  0.016934  0.016934
                              182:  0.016043  0.016043  0.016043
                              183:  0.015152  0.015152  0.015152
                              184:  0.014261  0.014261  0.014261
                              185:  0.013369  0.013369  0.013369
                              186:  0.012478  0.012478  0.012478
                              187:  0.011587  0.011587  0.011587
                              188:  0.010695  0.010695  0.010695
                              189:  0.009804  0.009804  0.009804
                              190:  0.008913  0.008913  0.008913
                              191:  0.008022  0.008022  0.008022
                              192:  0.007130  0.007130  0.007130
                              193:  0.006239  0.006239  0.006239
                              194:  0.005348  0.005348  0.005348
                              195:  0.004456  0.004456  0.004456
                              196:  0.003565  0.003565  0.003565
                              197:  0.002674  0.002674  0.002674
                              198:  0.001783  0.001783  0.001783
                              199:  0.000891  0.000891  0.000891
                              200:  0.000000  0.000000  0.000000
                              201:  0.000000  0.000000  0.000000
                              202:  0.001337  0.001337  0.000000
                              203:  0.002674  0.002674  0.000000
                              204:  0.004011  0.004011  0.000000
                              205:  0.005348  0.005348  0.000000
                              206:  0.006685  0.006685  0.000000
                              207:  0.008022  0.008022  0.000000
                              208:  0.009359  0.009359  0.000000
                              209:  0.010695  0.010695  0.000000
                              210:  0.012032  0.012032  0.000000
                              211:  0.013369  0.013369  0.000000
                              212:  0.014706  0.014706  0.000000
                              213:  0.016043  0.016043  0.000000
                              214:  0.017380  0.017380  0.000000
                              215:  0.018717  0.018717  0.000000
                              216:  0.020054  0.020054  0.000000
                              217:  0.021391  0.021391  0.000000
                              218:  0.022728  0.022728  0.000000
                              219:  0.024065  0.024065  0.000000
                              220:  0.025402  0.025402  0.000000
                              221:  0.026739  0.026739  0.000000
                              222:  0.028076  0.028076  0.000000
                              223:  0.029412  0.029412  0.000000
                              224:  0.030749  0.030749  0.000000
                              225:  0.032086  0.032086  0.000000
                              226:  0.033423  0.033423  0.000000
                              227:  0.034760  0.034760  0.000000
                              228:  0.036097  0.036097  0.000000
                              229:  0.037434  0.037434  0.000000
                              230:  0.038771  0.038771  0.000000
                              231:  0.040108  0.040108  0.000000
                              232:  0.041445  0.041445  0.000000
                              233:  0.042782  0.042782  0.000000
                              234:  0.044119  0.044119  0.000000
                              235:  0.045456  0.045456  0.000000
                              236:  0.046793  0.046793  0.000000
                              237:  0.048129  0.048129  0.000000
                              238:  0.049466  0.049466  0.000000
                              239:  0.050803  0.050803  0.000000
                              240:  0.052140  0.052140  0.000000
                              241:  0.053477  0.053477  0.000000
                              242:  0.054814  0.054814  0.000000
                              243:  0.056151  0.056151  0.000000
                              244:  0.057488  0.057488  0.000000
                              245:  0.058825  0.058825  0.000000
                              246:  0.060162  0.060162  0.000000
                              247:  0.061499  0.061499  0.000000
                              248:  0.062836  0.062836  0.000000
                              249:  0.064173  0.064173  0.000000
                              250:  0.065510  0.065510  0.000000

Extra options:
                             Mulliken analysis

--------------------------------------------------------------------------------

***  Geometry step: 0

 iSCC Total electronic   Diff electronic      SCC error    
    1    0.00000000E+00    0.00000000E+00    0.17895650E+00
    2   -0.24847769E+02   -0.24847769E+02    0.11084874E+00
    3   -0.24848017E+02   -0.24774576E-03    0.11527635E-02
    4   -0.24848172E+02   -0.15564672E-03    0.80902540E-05
>> Charges saved for restart in charges.bin

Total Energy:                      -24.8481723122 H         -676.1532 eV
Extrapolated to 0K:                -24.8481723122 H         -676.1532 eV
Total Mermin free energy:          -24.8481723122 H         -676.1532 eV
Force related energy:              -24.8481723122 H         -676.1532 eV


--------------------------------------------------------------------------------
DFTB+ running times                          cpu [s]             wall clock [s]
--------------------------------------------------------------------------------
Global initialisation                  +       0.05 (  0.7%)       0.00 (  0.4%)
Pre-SCC initialisation                 +       0.33 (  4.9%)       0.03 (  4.3%)
SCC                                    +       6.35 ( 93.7%)       0.64 ( 94.2%)
Post-geometry optimisation             +       0.05 (  0.7%)       0.01 (  0.9%)
--------------------------------------------------------------------------------
Missing                                +       0.00 (  0.0%)       0.00 (  0.1%)
Total                                  =       6.77 (100.0%)       0.68 (100.0%)
--------------------------------------------------------------------------------
