 Fermi distribution function

Calculation with static geometry


********************************************************************************
 iSCC Total electronic   Diff electronic      SCC error    
    5   -0.24910509E+02   -0.36007454E-05    0.60331171E-07
********************************************************************************

 Total charge:    -0.00000000

 Atomic gross charges (e)
 Atom           Charge
    1       0.63488362
    2      -0.63488362

Nr. of electrons (up):     28.00000000
Atom populations (up)
 Atom       Population
    1      12.36511638
    2      15.63488362

l-shell populations (up)
 Atom Sh.   l       Population
    1   1   0       1.44625470
    1   2   1       0.92823659
    1   3   2       9.99062508
    2   1   0       1.99841680
    2   2   1       3.63676971
    2   3   2       9.99969711

Orbital populations (up)
 Atom Sh.   l   m       Population  Label
    1   1   0   0       1.44625470  s
    1   2   1  -1       0.30941220  p_y
    1   2   1   0       0.30941220  p_z
    1   2   1   1       0.30941220  p_x
    1   3   2  -2       1.99704867  d_xy
    1   3   2  -1       1.99704867  d_yz
    1   3   2   0       1.99973953  d_z2
    1   3   2   1       1.99704867  d_xz
    1   3   2   2       1.99973953  d_x2-y2
    2   1   0   0       1.99841680  s
    2   2   1  -1       1.21225657  p_y
    2   2   1   0       1.21225657  p_z
    2   2   1   1       1.21225657  p_x
    2   3   2  -2       1.99988254  d_xy
    2   3   2  -1       1.99988254  d_yz
    2   3   2   0       2.00002474  d_z2
    2   3   2   1       1.99988254  d_xz
    2   3   2   2       2.00002474  d_x2-y2

Fermi level:                        -0.0695271720 H           -1.8919 eV
Band energy:                       -23.7887532800 H         -647.3249 eV
TS:                                  0.0000000000 H            0.0000 eV
Band free energy (E-TS):           -23.7887532800 H         -647.3249 eV
Extrapolated E(0K):                -23.7887532800 H         -647.3249 eV
Input / Output electrons (q):     28.0000000000     28.0000000000

Energy H0:                         -24.9211751570 H         -678.1397 eV
Energy SCC:                          0.0106661407 H            0.2902 eV
Total Electronic energy:           -24.9105090163 H         -677.8494 eV
Repulsive energy:                    0.0000000000 H            0.0000 eV
Total energy:                      -24.9105090163 H         -677.8494 eV
Extrapolated to 0:                 -24.9105090163 H         -677.8494 eV
Total Mermin free energy:          -24.9105090163 H         -677.8494 eV
Force related energy:              -24.9105090163 H         -677.8494 eV

SCC converged


