|===============================================================================
|
|  DFTB+ release 21.2
|
|  Copyright (C) 2006 - 2021  DFTB+ developers group
|
|===============================================================================
|
|  When publishing results obtained with DFTB+, please cite the following
|  reference:
|
|  * DFTB+, a software package for efficient approximate density functional
|    theory based atomistic simulations, J. Chem. Phys. 152, 124101 (2020).
|    [doi: 10.1063/1.5143190]
|
|  You should also cite additional publications crediting the parametrization
|  data you use. Please consult the documentation of the SK-files for the
|  references.
|
|===============================================================================

Reading input file 'dftb_in.hsd'
Parser version: 10

--------------------------------------------------------------------------------
Reading SK-files:
/home/derek/doc/cmu/research/projects/dftb_tests/dftbopt/dftbopt/slako/In-In.skf
/home/derek/doc/cmu/research/projects/dftb_tests/dftbopt/dftbopt/slako/In-As.skf
/home/derek/doc/cmu/research/projects/dftb_tests/dftbopt/dftbopt/slako/As-As.skf
Done.
WARNING!
-> The following 1 node(s) have been ignored by the parser:
(1)
Path: dftbplusinput/Hamiltonian/DFTB/SccTolerence
Line: 18-18 (File: dftb_in.hsd)



Processed input in HSD format written to 'dftb_pin.hsd'

Starting initialization...
--------------------------------------------------------------------------------
OpenMP threads:              12
Chosen random seed:          361920508
Mode:                        Static calculation
Self consistent charges:     Yes
SCC-tolerance:                 0.100000E-04
Max. scc iterations:                    100
Shell resolved Hubbard:      No
Spin polarisation:           No
Nr. of up electrons:            14.000000
Nr. of down electrons:          14.000000
Periodic boundaries:         Yes
Electronic solver:           Relatively robust
Mixer:                       Broyden mixer
Mixing parameter:                  0.200000
Maximal SCC-cycles:                     100
Nr. of chrg. vec. in memory:            100
Electronic temperature:        0.100000E-07 H      0.272114E-06 eV
Initial charges:             Set automatically (system chrg:   0.000E+00)
Included shells:            In:  s, p, d
                            As:  s, p, d
K-points and weights:           1:  0.000000  0.000000  0.000000     0.002915
                                2:  0.000000  0.000000  0.142857     0.005831
                                3:  0.000000  0.000000  0.285714     0.005831
                                4:  0.000000  0.000000  0.428571     0.005831
                                5:  0.000000  0.142857  0.000000     0.005831
                                6:  0.000000  0.142857  0.142857     0.005831
                                7:  0.000000  0.142857  0.285714     0.005831
                                8:  0.000000  0.142857  0.428571     0.005831
                                9:  0.000000  0.142857  0.571429     0.005831
                               10:  0.000000  0.142857  0.714286     0.005831
                               11:  0.000000  0.142857  0.857143     0.005831
                               12:  0.000000  0.285714  0.000000     0.005831
                               13:  0.000000  0.285714  0.142857     0.005831
                               14:  0.000000  0.285714  0.285714     0.005831
                               15:  0.000000  0.285714  0.428571     0.005831
                               16:  0.000000  0.285714  0.571429     0.005831
                               17:  0.000000  0.285714  0.714286     0.005831
                               18:  0.000000  0.285714  0.857143     0.005831
                               19:  0.000000  0.428571  0.000000     0.005831
                               20:  0.000000  0.428571  0.142857     0.005831
                               21:  0.000000  0.428571  0.285714     0.005831
                               22:  0.000000  0.428571  0.428571     0.005831
                               23:  0.000000  0.428571  0.571429     0.005831
                               24:  0.000000  0.428571  0.714286     0.005831
                               25:  0.000000  0.428571  0.857143     0.005831
                               26:  0.142857  0.000000  0.000000     0.005831
                               27:  0.142857  0.000000  0.142857     0.005831
                               28:  0.142857  0.000000  0.285714     0.005831
                               29:  0.142857  0.000000  0.428571     0.005831
                               30:  0.142857  0.000000  0.571429     0.005831
                               31:  0.142857  0.000000  0.714286     0.005831
                               32:  0.142857  0.000000  0.857143     0.005831
                               33:  0.142857  0.142857  0.000000     0.005831
                               34:  0.142857  0.142857  0.142857     0.005831
                               35:  0.142857  0.142857  0.285714     0.005831
                               36:  0.142857  0.142857  0.428571     0.005831
                               37:  0.142857  0.142857  0.571429     0.005831
                               38:  0.142857  0.142857  0.714286     0.005831
                               39:  0.142857  0.142857  0.857143     0.005831
                               40:  0.142857  0.285714  0.000000     0.005831
                               41:  0.142857  0.285714  0.142857     0.005831
                               42:  0.142857  0.285714  0.285714     0.005831
                               43:  0.142857  0.285714  0.428571     0.005831
                               44:  0.142857  0.285714  0.571429     0.005831
                               45:  0.142857  0.285714  0.714286     0.005831
                               46:  0.142857  0.285714  0.857143     0.005831
                               47:  0.142857  0.428571  0.000000     0.005831
                               48:  0.142857  0.428571  0.142857     0.005831
                               49:  0.142857  0.428571  0.285714     0.005831
                               50:  0.142857  0.428571  0.428571     0.005831
                               51:  0.142857  0.428571  0.571429     0.005831
                               52:  0.142857  0.428571  0.714286     0.005831
                               53:  0.142857  0.428571  0.857143     0.005831
                               54:  0.142857  0.571429  0.000000     0.005831
                               55:  0.142857  0.571429  0.142857     0.005831
                               56:  0.142857  0.571429  0.285714     0.005831
                               57:  0.142857  0.571429  0.428571     0.005831
                               58:  0.142857  0.571429  0.571429     0.005831
                               59:  0.142857  0.571429  0.714286     0.005831
                               60:  0.142857  0.571429  0.857143     0.005831
                               61:  0.142857  0.714286  0.000000     0.005831
                               62:  0.142857  0.714286  0.142857     0.005831
                               63:  0.142857  0.714286  0.285714     0.005831
                               64:  0.142857  0.714286  0.428571     0.005831
                               65:  0.142857  0.714286  0.571429     0.005831
                               66:  0.142857  0.714286  0.714286     0.005831
                               67:  0.142857  0.714286  0.857143     0.005831
                               68:  0.142857  0.857143  0.000000     0.005831
                               69:  0.142857  0.857143  0.142857     0.005831
                               70:  0.142857  0.857143  0.285714     0.005831
                               71:  0.142857  0.857143  0.428571     0.005831
                               72:  0.142857  0.857143  0.571429     0.005831
                               73:  0.142857  0.857143  0.714286     0.005831
                               74:  0.142857  0.857143  0.857143     0.005831
                               75:  0.285714  0.000000  0.000000     0.005831
                               76:  0.285714  0.000000  0.142857     0.005831
                               77:  0.285714  0.000000  0.285714     0.005831
                               78:  0.285714  0.000000  0.428571     0.005831
                               79:  0.285714  0.000000  0.571429     0.005831
                               80:  0.285714  0.000000  0.714286     0.005831
                               81:  0.285714  0.000000  0.857143     0.005831
                               82:  0.285714  0.142857  0.000000     0.005831
                               83:  0.285714  0.142857  0.142857     0.005831
                               84:  0.285714  0.142857  0.285714     0.005831
                               85:  0.285714  0.142857  0.428571     0.005831
                               86:  0.285714  0.142857  0.571429     0.005831
                               87:  0.285714  0.142857  0.714286     0.005831
                               88:  0.285714  0.142857  0.857143     0.005831
                               89:  0.285714  0.285714  0.000000     0.005831
                               90:  0.285714  0.285714  0.142857     0.005831
                               91:  0.285714  0.285714  0.285714     0.005831
                               92:  0.285714  0.285714  0.428571     0.005831
                               93:  0.285714  0.285714  0.571429     0.005831
                               94:  0.285714  0.285714  0.714286     0.005831
                               95:  0.285714  0.285714  0.857143     0.005831
                               96:  0.285714  0.428571  0.000000     0.005831
                               97:  0.285714  0.428571  0.142857     0.005831
                               98:  0.285714  0.428571  0.285714     0.005831
                               99:  0.285714  0.428571  0.428571     0.005831
                              100:  0.285714  0.428571  0.571429     0.005831
                              101:  0.285714  0.428571  0.714286     0.005831
                              102:  0.285714  0.428571  0.857143     0.005831
                              103:  0.285714  0.571429  0.000000     0.005831
                              104:  0.285714  0.571429  0.142857     0.005831
                              105:  0.285714  0.571429  0.285714     0.005831
                              106:  0.285714  0.571429  0.428571     0.005831
                              107:  0.285714  0.571429  0.571429     0.005831
                              108:  0.285714  0.571429  0.714286     0.005831
                              109:  0.285714  0.571429  0.857143     0.005831
                              110:  0.285714  0.714286  0.000000     0.005831
                              111:  0.285714  0.714286  0.142857     0.005831
                              112:  0.285714  0.714286  0.285714     0.005831
                              113:  0.285714  0.714286  0.428571     0.005831
                              114:  0.285714  0.714286  0.571429     0.005831
                              115:  0.285714  0.714286  0.714286     0.005831
                              116:  0.285714  0.714286  0.857143     0.005831
                              117:  0.285714  0.857143  0.000000     0.005831
                              118:  0.285714  0.857143  0.142857     0.005831
                              119:  0.285714  0.857143  0.285714     0.005831
                              120:  0.285714  0.857143  0.428571     0.005831
                              121:  0.285714  0.857143  0.571429     0.005831
                              122:  0.285714  0.857143  0.714286     0.005831
                              123:  0.285714  0.857143  0.857143     0.005831
                              124:  0.428571  0.000000  0.000000     0.005831
                              125:  0.428571  0.000000  0.142857     0.005831
                              126:  0.428571  0.000000  0.285714     0.005831
                              127:  0.428571  0.000000  0.428571     0.005831
                              128:  0.428571  0.000000  0.571429     0.005831
                              129:  0.428571  0.000000  0.714286     0.005831
                              130:  0.428571  0.000000  0.857143     0.005831
                              131:  0.428571  0.142857  0.000000     0.005831
                              132:  0.428571  0.142857  0.142857     0.005831
                              133:  0.428571  0.142857  0.285714     0.005831
                              134:  0.428571  0.142857  0.428571     0.005831
                              135:  0.428571  0.142857  0.571429     0.005831
                              136:  0.428571  0.142857  0.714286     0.005831
                              137:  0.428571  0.142857  0.857143     0.005831
                              138:  0.428571  0.285714  0.000000     0.005831
                              139:  0.428571  0.285714  0.142857     0.005831
                              140:  0.428571  0.285714  0.285714     0.005831
                              141:  0.428571  0.285714  0.428571     0.005831
                              142:  0.428571  0.285714  0.571429     0.005831
                              143:  0.428571  0.285714  0.714286     0.005831
                              144:  0.428571  0.285714  0.857143     0.005831
                              145:  0.428571  0.428571  0.000000     0.005831
                              146:  0.428571  0.428571  0.142857     0.005831
                              147:  0.428571  0.428571  0.285714     0.005831
                              148:  0.428571  0.428571  0.428571     0.005831
                              149:  0.428571  0.428571  0.571429     0.005831
                              150:  0.428571  0.428571  0.714286     0.005831
                              151:  0.428571  0.428571  0.857143     0.005831
                              152:  0.428571  0.571429  0.000000     0.005831
                              153:  0.428571  0.571429  0.142857     0.005831
                              154:  0.428571  0.571429  0.285714     0.005831
                              155:  0.428571  0.571429  0.428571     0.005831
                              156:  0.428571  0.571429  0.571429     0.005831
                              157:  0.428571  0.571429  0.714286     0.005831
                              158:  0.428571  0.571429  0.857143     0.005831
                              159:  0.428571  0.714286  0.000000     0.005831
                              160:  0.428571  0.714286  0.142857     0.005831
                              161:  0.428571  0.714286  0.285714     0.005831
                              162:  0.428571  0.714286  0.428571     0.005831
                              163:  0.428571  0.714286  0.571429     0.005831
                              164:  0.428571  0.714286  0.714286     0.005831
                              165:  0.428571  0.714286  0.857143     0.005831
                              166:  0.428571  0.857143  0.000000     0.005831
                              167:  0.428571  0.857143  0.142857     0.005831
                              168:  0.428571  0.857143  0.285714     0.005831
                              169:  0.428571  0.857143  0.428571     0.005831
                              170:  0.428571  0.857143  0.571429     0.005831
                              171:  0.428571  0.857143  0.714286     0.005831
                              172:  0.428571  0.857143  0.857143     0.005831

K-points in absolute space:     1:  0.000000  0.000000  0.000000
                                2:  0.012478  0.012478 -0.012478
                                3:  0.024956  0.024956 -0.024956
                                4:  0.037434  0.037434 -0.037434
                                5:  0.012478 -0.012478  0.012478
                                6:  0.024956  0.000000  0.000000
                                7:  0.037434  0.012478 -0.012478
                                8:  0.049912  0.024956 -0.024956
                                9:  0.062390  0.037434 -0.037434
                               10:  0.074868  0.049912 -0.049912
                               11:  0.087346  0.062390 -0.062390
                               12:  0.024956 -0.024956  0.024956
                               13:  0.037434 -0.012478  0.012478
                               14:  0.049912  0.000000  0.000000
                               15:  0.062390  0.012478 -0.012478
                               16:  0.074868  0.024956 -0.024956
                               17:  0.087346  0.037434 -0.037434
                               18:  0.099824  0.049912 -0.049912
                               19:  0.037434 -0.037434  0.037434
                               20:  0.049912 -0.024956  0.024956
                               21:  0.062390 -0.012478  0.012478
                               22:  0.074868  0.000000  0.000000
                               23:  0.087346  0.012478 -0.012478
                               24:  0.099824  0.024956 -0.024956
                               25:  0.112302  0.037434 -0.037434
                               26: -0.012478  0.012478  0.012478
                               27:  0.000000  0.024956  0.000000
                               28:  0.012478  0.037434 -0.012478
                               29:  0.024956  0.049912 -0.024956
                               30:  0.037434  0.062390 -0.037434
                               31:  0.049912  0.074868 -0.049912
                               32:  0.062390  0.087346 -0.062390
                               33:  0.000000  0.000000  0.024956
                               34:  0.012478  0.012478  0.012478
                               35:  0.024956  0.024956  0.000000
                               36:  0.037434  0.037434 -0.012478
                               37:  0.049912  0.049912 -0.024956
                               38:  0.062390  0.062390 -0.037434
                               39:  0.074868  0.074868 -0.049912
                               40:  0.012478 -0.012478  0.037434
                               41:  0.024956  0.000000  0.024956
                               42:  0.037434  0.012478  0.012478
                               43:  0.049912  0.024956  0.000000
                               44:  0.062390  0.037434 -0.012478
                               45:  0.074868  0.049912 -0.024956
                               46:  0.087346  0.062390 -0.037434
                               47:  0.024956 -0.024956  0.049912
                               48:  0.037434 -0.012478  0.037434
                               49:  0.049912  0.000000  0.024956
                               50:  0.062390  0.012478  0.012478
                               51:  0.074868  0.024956  0.000000
                               52:  0.087346  0.037434 -0.012478
                               53:  0.099824  0.049912 -0.024956
                               54:  0.037434 -0.037434  0.062390
                               55:  0.049912 -0.024956  0.049912
                               56:  0.062390 -0.012478  0.037434
                               57:  0.074868  0.000000  0.024956
                               58:  0.087346  0.012478  0.012478
                               59:  0.099824  0.024956  0.000000
                               60:  0.112302  0.037434 -0.012478
                               61:  0.049912 -0.049912  0.074868
                               62:  0.062390 -0.037434  0.062390
                               63:  0.074868 -0.024956  0.049912
                               64:  0.087346 -0.012478  0.037434
                               65:  0.099824  0.000000  0.024956
                               66:  0.112302  0.012478  0.012478
                               67:  0.124780  0.024956  0.000000
                               68:  0.062390 -0.062390  0.087346
                               69:  0.074868 -0.049912  0.074868
                               70:  0.087346 -0.037434  0.062390
                               71:  0.099824 -0.024956  0.049912
                               72:  0.112302 -0.012478  0.037434
                               73:  0.124780  0.000000  0.024956
                               74:  0.137258  0.012478  0.012478
                               75: -0.024956  0.024956  0.024956
                               76: -0.012478  0.037434  0.012478
                               77:  0.000000  0.049912  0.000000
                               78:  0.012478  0.062390 -0.012478
                               79:  0.024956  0.074868 -0.024956
                               80:  0.037434  0.087346 -0.037434
                               81:  0.049912  0.099824 -0.049912
                               82: -0.012478  0.012478  0.037434
                               83:  0.000000  0.024956  0.024956
                               84:  0.012478  0.037434  0.012478
                               85:  0.024956  0.049912  0.000000
                               86:  0.037434  0.062390 -0.012478
                               87:  0.049912  0.074868 -0.024956
                               88:  0.062390  0.087346 -0.037434
                               89:  0.000000  0.000000  0.049912
                               90:  0.012478  0.012478  0.037434
                               91:  0.024956  0.024956  0.024956
                               92:  0.037434  0.037434  0.012478
                               93:  0.049912  0.049912  0.000000
                               94:  0.062390  0.062390 -0.012478
                               95:  0.074868  0.074868 -0.024956
                               96:  0.012478 -0.012478  0.062390
                               97:  0.024956  0.000000  0.049912
                               98:  0.037434  0.012478  0.037434
                               99:  0.049912  0.024956  0.024956
                              100:  0.062390  0.037434  0.012478
                              101:  0.074868  0.049912  0.000000
                              102:  0.087346  0.062390 -0.012478
                              103:  0.024956 -0.024956  0.074868
                              104:  0.037434 -0.012478  0.062390
                              105:  0.049912  0.000000  0.049912
                              106:  0.062390  0.012478  0.037434
                              107:  0.074868  0.024956  0.024956
                              108:  0.087346  0.037434  0.012478
                              109:  0.099824  0.049912  0.000000
                              110:  0.037434 -0.037434  0.087346
                              111:  0.049912 -0.024956  0.074868
                              112:  0.062390 -0.012478  0.062390
                              113:  0.074868  0.000000  0.049912
                              114:  0.087346  0.012478  0.037434
                              115:  0.099824  0.024956  0.024956
                              116:  0.112302  0.037434  0.012478
                              117:  0.049912 -0.049912  0.099824
                              118:  0.062390 -0.037434  0.087346
                              119:  0.074868 -0.024956  0.074868
                              120:  0.087346 -0.012478  0.062390
                              121:  0.099824  0.000000  0.049912
                              122:  0.112302  0.012478  0.037434
                              123:  0.124780  0.024956  0.024956
                              124: -0.037434  0.037434  0.037434
                              125: -0.024956  0.049912  0.024956
                              126: -0.012478  0.062390  0.012478
                              127:  0.000000  0.074868  0.000000
                              128:  0.012478  0.087346 -0.012478
                              129:  0.024956  0.099824 -0.024956
                              130:  0.037434  0.112302 -0.037434
                              131: -0.024956  0.024956  0.049912
                              132: -0.012478  0.037434  0.037434
                              133:  0.000000  0.049912  0.024956
                              134:  0.012478  0.062390  0.012478
                              135:  0.024956  0.074868  0.000000
                              136:  0.037434  0.087346 -0.012478
                              137:  0.049912  0.099824 -0.024956
                              138: -0.012478  0.012478  0.062390
                              139:  0.000000  0.024956  0.049912
                              140:  0.012478  0.037434  0.037434
                              141:  0.024956  0.049912  0.024956
                              142:  0.037434  0.062390  0.012478
                              143:  0.049912  0.074868  0.000000
                              144:  0.062390  0.087346 -0.012478
                              145:  0.000000  0.000000  0.074868
                              146:  0.012478  0.012478  0.062390
                              147:  0.024956  0.024956  0.049912
                              148:  0.037434  0.037434  0.037434
                              149:  0.049912  0.049912  0.024956
                              150:  0.062390  0.062390  0.012478
                              151:  0.074868  0.074868  0.000000
                              152:  0.012478 -0.012478  0.087346
                              153:  0.024956 -0.000000  0.074868
                              154:  0.037434  0.012478  0.062390
                              155:  0.049912  0.024956  0.049912
                              156:  0.062390  0.037434  0.037434
                              157:  0.074868  0.049912  0.024956
                              158:  0.087346  0.062390  0.012478
                              159:  0.024956 -0.024956  0.099824
                              160:  0.037434 -0.012478  0.087346
                              161:  0.049912  0.000000  0.074868
                              162:  0.062390  0.012478  0.062390
                              163:  0.074868  0.024956  0.049912
                              164:  0.087346  0.037434  0.037434
                              165:  0.099824  0.049912  0.024956
                              166:  0.037434 -0.037434  0.112302
                              167:  0.049912 -0.024956  0.099824
                              168:  0.062390 -0.012478  0.087346
                              169:  0.074868  0.000000  0.074868
                              170:  0.087346  0.012478  0.062390
                              171:  0.099824  0.024956  0.049912
                              172:  0.112302  0.037434  0.037434

Extra options:
                             Mulliken analysis

--------------------------------------------------------------------------------

***  Geometry step: 0

 iSCC Total electronic   Diff electronic      SCC error    
    1    0.00000000E+00    0.00000000E+00    0.11481769E+01
    2   -0.24895061E+02   -0.24895061E+02    0.73889204E+00
    3   -0.24904025E+02   -0.89641753E-02    0.17205073E-01
    4   -0.24910505E+02   -0.64806769E-02    0.46501745E-03
    5   -0.24910509E+02   -0.36007454E-05    0.60331171E-07
>> Charges saved for restart in charges.bin

Total Energy:                      -24.9105090163 H         -677.8494 eV
Extrapolated to 0K:                -24.9105090163 H         -677.8494 eV
Total Mermin free energy:          -24.9105090163 H         -677.8494 eV
Force related energy:              -24.9105090163 H         -677.8494 eV


--------------------------------------------------------------------------------
DFTB+ running times                          cpu [s]             wall clock [s]
--------------------------------------------------------------------------------
Global initialisation                  +       0.04 (  0.4%)       0.00 (  0.4%)
Pre-SCC initialisation                 +       0.44 (  5.4%)       0.04 (  5.1%)
SCC                                    +       7.55 ( 93.1%)       0.70 ( 93.9%)
Post-geometry optimisation             +       0.08 (  1.0%)       0.00 (  0.5%)
--------------------------------------------------------------------------------
Missing                                +       0.00 (  0.0%)       0.00 (  0.0%)
Total                                  =       8.11 (100.0%)       0.74 (100.0%)
--------------------------------------------------------------------------------
